   1   1   1   0
  0.1651517E+02  0.2858464E-09  0.2858464E-09  0.2858464E-09  0.5000000E-15
   1.0000000000000000E-004
  CAR 
 volume relaxation fcc Al                
     24.77735449     -5.13478138  301      8.00489507      1.00000000
     -5.135  0.0000E+00  0.0000E+00
     -5.035  0.0000E+00  0.0000E+00
     -4.935  0.0000E+00  0.0000E+00
     -4.836  0.0000E+00  0.0000E+00
     -4.736  0.1506E-27  0.1501E-28
     -4.636  0.2812E-24  0.2806E-25
     -4.537  0.3148E-21  0.3142E-22
     -4.437  0.2105E-18  0.2102E-19
     -4.337  0.8384E-16  0.8380E-17
     -4.237  0.1983E-13  0.1986E-14
     -4.138  0.2758E-11  0.2769E-12
     -4.038  0.2237E-09  0.2258E-10
     -3.938  0.1043E-07  0.1063E-08
     -3.839  0.2731E-06  0.2829E-07
     -3.739  0.3836E-05  0.4108E-06
     -3.639  0.2623E-04  0.3026E-05
     -3.539  0.6351E-04  0.9359E-05
     -3.440 -0.5362E-04  0.4012E-05
     -3.340 -0.7426E-04 -0.3392E-05
     -3.240  0.9280E-03  0.8914E-04
     -3.141  0.3205E-03  0.1211E-03
     -3.041  0.7652E-02  0.8841E-03
     -2.941  0.5309E-01  0.6178E-02
     -2.842  0.9497E-01  0.1565E-01
     -2.742  0.6029E-01  0.2166E-01
     -2.642  0.2468E-01  0.2412E-01
     -2.542  0.5358E-01  0.2946E-01
     -2.443  0.8885E-01  0.3832E-01
     -2.343  0.1634E+00  0.5461E-01
     -2.243  0.2218E+00  0.7673E-01
     -2.144  0.1246E+00  0.8915E-01
     -2.044  0.1495E-01  0.9064E-01
     -1.944  0.4307E-02  0.9107E-01
     -1.844  0.4121E-01  0.9518E-01
     -1.745  0.1854E+00  0.1137E+00
     -1.645  0.3256E+00  0.1461E+00
     -1.545  0.2155E+00  0.1676E+00
     -1.446  0.7112E-01  0.1747E+00
     -1.346  0.1173E+00  0.1864E+00
     -1.246  0.1801E+00  0.2044E+00
     -1.146  0.2254E+00  0.2268E+00
     -1.047  0.2143E+00  0.2482E+00
     -0.947  0.7557E-01  0.2557E+00
     -0.847  0.4205E-02  0.2562E+00
     -0.748  0.3303E-01  0.2594E+00
     -0.648  0.1208E+00  0.2715E+00
     -0.548  0.3862E+00  0.3100E+00
     -0.449  0.5319E+00  0.3630E+00
     -0.349  0.2732E+00  0.3903E+00
     -0.249  0.6618E-01  0.3969E+00
     -0.149  0.1169E+00  0.4085E+00
     -0.050  0.1660E+00  0.4251E+00
      0.050  0.2554E+00  0.4505E+00
      0.150  0.3191E+00  0.4824E+00
      0.249  0.1669E+00  0.4990E+00
      0.349  0.1294E-01  0.5003E+00
      0.449  0.4230E-02  0.5007E+00
      0.549  0.1530E+00  0.5160E+00
      0.648  0.4347E+00  0.5593E+00
      0.748  0.4420E+00  0.6034E+00
      0.848  0.1645E+00  0.6198E+00
      0.947  0.1460E+00  0.6343E+00
      1.047  0.3184E+00  0.6661E+00
      1.147  0.4392E+00  0.7099E+00
      1.246  0.5389E+00  0.7636E+00
      1.346  0.3492E+00  0.7984E+00
      1.446  0.4116E-01  0.8025E+00
      1.546 -0.2829E-01  0.7997E+00
      1.645  0.9082E-02  0.8006E+00
      1.745  0.1657E+00  0.8171E+00
      1.845  0.4476E+00  0.8618E+00
      1.944  0.4285E+00  0.9045E+00
      2.044  0.1731E+00  0.9217E+00
      2.144  0.1494E+00  0.9366E+00
      2.244  0.2495E+00  0.9615E+00
      2.343  0.4154E+00  0.1003E+01
      2.443  0.5478E+00  0.1058E+01
      2.543  0.3198E+00  0.1089E+01
      2.642  0.6481E-01  0.1096E+01
      2.742  0.7097E-01  0.1103E+01
      2.842  0.2436E+00  0.1127E+01
      2.941  0.6454E+00  0.1192E+01
      3.041  0.8045E+00  0.1272E+01
      3.141  0.3804E+00  0.1310E+01
      3.241  0.6113E-01  0.1316E+01
      3.340  0.1222E+00  0.1328E+01
      3.440  0.2772E+00  0.1356E+01
      3.540  0.3672E+00  0.1392E+01
      3.639  0.2162E+00  0.1414E+01
      3.739  0.3516E-01  0.1417E+01
      3.839  0.6647E-01  0.1424E+01
      3.939  0.1578E+00  0.1440E+01
      4.038  0.4025E+00  0.1480E+01
      4.138  0.6829E+00  0.1548E+01
      4.238  0.4957E+00  0.1597E+01
      4.337  0.2805E+00  0.1625E+01
      4.437  0.4034E+00  0.1666E+01
      4.537  0.4653E+00  0.1712E+01
      4.637  0.6172E+00  0.1773E+01
      4.736  0.6901E+00  0.1842E+01
      4.836  0.3122E+00  0.1873E+01
      4.936 -0.3622E-01  0.1870E+01
      5.035 -0.1002E+00  0.1860E+01
      5.135  0.1394E+00  0.1874E+01
      5.235  0.6794E+00  0.1941E+01
      5.334  0.8831E+00  0.2030E+01
      5.434  0.5824E+00  0.2088E+01
      5.534  0.3273E+00  0.2120E+01
      5.634  0.1785E+00  0.2138E+01
      5.733  0.2054E+00  0.2158E+01
      5.833  0.3271E+00  0.2191E+01
      5.933  0.2048E+00  0.2212E+01
      6.032  0.2978E-01  0.2214E+01
      6.132 -0.5363E-02  0.2214E+01
      6.232  0.1596E+00  0.2230E+01
      6.332  0.6649E+00  0.2296E+01
      6.431  0.9178E+00  0.2388E+01
      6.531  0.5624E+00  0.2444E+01
      6.631  0.2575E+00  0.2469E+01
      6.730  0.2417E+00  0.2494E+01
      6.830  0.5113E+00  0.2544E+01
      6.930  0.8681E+00  0.2631E+01
      7.029  0.6914E+00  0.2700E+01
      7.129  0.2619E+00  0.2726E+01
      7.229  0.1523E+00  0.2741E+01
      7.329  0.2404E+00  0.2765E+01
      7.428  0.2944E+00  0.2795E+01
      7.528  0.1985E+00  0.2814E+01
      7.628  0.1190E+00  0.2826E+01
      7.727  0.3729E+00  0.2863E+01
      7.827  0.5754E+00  0.2921E+01
      7.927  0.4445E+00  0.2965E+01
      8.027  0.4564E+00  0.3011E+01
      8.126  0.4284E+00  0.3053E+01
      8.226  0.2050E+00  0.3074E+01
      8.326  0.1027E+00  0.3084E+01
      8.425  0.1304E+00  0.3097E+01
      8.525  0.4035E+00  0.3137E+01
      8.625  0.7349E+00  0.3211E+01
      8.725  0.6870E+00  0.3279E+01
      8.824  0.5750E+00  0.3336E+01
      8.924  0.7022E+00  0.3406E+01
      9.024  0.7350E+00  0.3480E+01
      9.123  0.6089E+00  0.3540E+01
      9.223  0.4062E+00  0.3581E+01
      9.323  0.2230E+00  0.3603E+01
      9.422  0.1120E+00  0.3614E+01
      9.522  0.1263E-01  0.3616E+01
      9.622  0.1801E+00  0.3634E+01
      9.722  0.5558E+00  0.3689E+01
      9.821  0.6238E+00  0.3751E+01
      9.921  0.4579E+00  0.3797E+01
     10.021  0.3709E+00  0.3834E+01
     10.120  0.5525E+00  0.3889E+01
     10.220  0.9037E+00  0.3979E+01
     10.320  0.7526E+00  0.4054E+01
     10.420  0.3155E+00  0.4085E+01
     10.519  0.2805E+00  0.4113E+01
     10.619  0.3474E+00  0.4148E+01
     10.719  0.2604E+00  0.4174E+01
     10.818  0.1211E+00  0.4186E+01
     10.918  0.1827E-02  0.4186E+01
     11.018  0.2143E+00  0.4208E+01
     11.117  0.8031E+00  0.4288E+01
     11.217  0.1202E+01  0.4408E+01
     11.317  0.9622E+00  0.4503E+01
     11.417  0.3702E+00  0.4540E+01
     11.516  0.1884E+00  0.4559E+01
     11.616  0.5241E+00  0.4611E+01
     11.716  0.5924E+00  0.4670E+01
     11.815  0.3240E+00  0.4703E+01
     11.915  0.2572E+00  0.4728E+01
     12.015  0.3450E+00  0.4763E+01
     12.115  0.4139E+00  0.4804E+01
     12.214  0.5365E+00  0.4858E+01
     12.314  0.7668E+00  0.4934E+01
     12.414  0.8184E+00  0.5016E+01
     12.513  0.5390E+00  0.5069E+01
     12.613  0.4609E+00  0.5115E+01
     12.713  0.6851E+00  0.5184E+01
     12.813  0.5341E+00  0.5237E+01
     12.912  0.2913E+00  0.5266E+01
     13.012  0.4130E+00  0.5307E+01
     13.112  0.4006E+00  0.5347E+01
     13.211  0.4681E+00  0.5394E+01
     13.311  0.7444E+00  0.5468E+01
     13.411  0.5939E+00  0.5527E+01
     13.510  0.3227E+00  0.5559E+01
     13.610  0.3491E+00  0.5594E+01
     13.710  0.4848E+00  0.5642E+01
     13.810  0.7172E+00  0.5714E+01
     13.909  0.8515E+00  0.5799E+01
     14.009  0.6492E+00  0.5864E+01
     14.109  0.4492E+00  0.5908E+01
     14.208  0.5585E+00  0.5964E+01
     14.308  0.7829E+00  0.6042E+01
     14.408  0.6983E+00  0.6112E+01
     14.508  0.4283E+00  0.6155E+01
     14.607  0.4170E+00  0.6196E+01
     14.707  0.5736E+00  0.6253E+01
     14.807  0.6595E+00  0.6319E+01
     14.906  0.5763E+00  0.6376E+01
     15.006  0.3550E+00  0.6412E+01
     15.106  0.2595E+00  0.6438E+01
     15.205  0.3974E+00  0.6477E+01
     15.305  0.5983E+00  0.6537E+01
     15.405  0.7071E+00  0.6608E+01
     15.505  0.5109E+00  0.6658E+01
     15.604  0.3162E+00  0.6690E+01
     15.704  0.6629E+00  0.6756E+01
     15.804  0.9395E+00  0.6850E+01
     15.903  0.6752E+00  0.6917E+01
     16.003  0.4146E+00  0.6958E+01
     16.103  0.4112E+00  0.6999E+01
     16.203  0.6317E+00  0.7062E+01
     16.302  0.7934E+00  0.7142E+01
     16.402  0.6507E+00  0.7206E+01
     16.502  0.4930E+00  0.7256E+01
     16.601  0.3498E+00  0.7290E+01
     16.701  0.3006E+00  0.7320E+01
     16.801  0.4256E+00  0.7363E+01
     16.900  0.3826E+00  0.7401E+01
     17.000  0.2482E+00  0.7426E+01
     17.100  0.3221E+00  0.7458E+01
     17.200  0.5948E+00  0.7517E+01
     17.299  0.8860E+00  0.7605E+01
     17.399  0.8307E+00  0.7688E+01
     17.499  0.5929E+00  0.7747E+01
     17.598  0.4869E+00  0.7796E+01
     17.698  0.3588E+00  0.7832E+01
     17.798  0.3081E+00  0.7862E+01
     17.898  0.4456E+00  0.7907E+01
     17.997  0.6264E+00  0.7969E+01
     18.097  0.6488E+00  0.8034E+01
     18.197  0.5362E+00  0.8088E+01
     18.296  0.4839E+00  0.8136E+01
     18.396  0.4313E+00  0.8179E+01
     18.496  0.3394E+00  0.8213E+01
     18.596  0.1690E+00  0.8229E+01
     18.695  0.2948E+00  0.8259E+01
     18.795  0.9074E+00  0.8349E+01
     18.895  0.1284E+01  0.8477E+01
     18.994  0.1095E+01  0.8587E+01
     19.094  0.7324E+00  0.8660E+01
     19.194  0.4505E+00  0.8705E+01
     19.293  0.3735E+00  0.8742E+01
     19.393  0.4116E+00  0.8783E+01
     19.493  0.3246E+00  0.8815E+01
     19.593  0.1939E+00  0.8834E+01
     19.692  0.1603E+00  0.8850E+01
     19.792  0.2427E+00  0.8875E+01
     19.892  0.4603E+00  0.8921E+01
     19.991  0.7660E+00  0.8997E+01
     20.091  0.9035E+00  0.9087E+01
     20.191  0.8572E+00  0.9172E+01
     20.291  0.9018E+00  0.9262E+01
     20.390  0.6603E+00  0.9328E+01
     20.490  0.1929E+00  0.9347E+01
     20.590  0.2737E+00  0.9375E+01
     20.689  0.6151E+00  0.9436E+01
     20.789  0.4789E+00  0.9484E+01
     20.889  0.2627E+00  0.9510E+01
     20.988  0.4767E+00  0.9558E+01
     21.088  0.6232E+00  0.9620E+01
     21.188  0.4302E+00  0.9663E+01
     21.288  0.2629E+00  0.9689E+01
     21.387  0.1594E+00  0.9705E+01
     21.487  0.4836E-01  0.9710E+01
     21.587 -0.1461E-01  0.9708E+01
     21.686  0.1738E-01  0.9710E+01
     21.786  0.2103E+00  0.9731E+01
     21.886  0.4377E+00  0.9774E+01
     21.986  0.4232E+00  0.9817E+01
     22.085  0.2951E+00  0.9846E+01
     22.185  0.3963E+00  0.9886E+01
     22.285  0.4762E+00  0.9933E+01
     22.384  0.3126E+00  0.9964E+01
     22.484  0.1411E+00  0.9978E+01
     22.584  0.6680E-01  0.9985E+01
     22.684  0.4319E-01  0.9989E+01
     22.783  0.5400E-01  0.9995E+01
     22.883  0.4766E-01  0.9999E+01
     22.983  0.1169E-01  0.1000E+02
     23.082 -0.4464E-02  0.1000E+02
     23.182 -0.1578E-02  0.1000E+02
     23.282  0.3746E-03  0.1000E+02
     23.381  0.2020E-03  0.1000E+02
     23.481  0.3044E-04  0.1000E+02
     23.581  0.2180E-05  0.1000E+02
     23.681  0.8341E-07  0.1000E+02
     23.780  0.1789E-08  0.1000E+02
     23.880  0.2206E-10  0.1000E+02
     23.980  0.1586E-12  0.1000E+02
     24.079  0.6693E-15  0.1000E+02
     24.179  0.0000E+00  0.1000E+02
     24.279  0.0000E+00  0.1000E+02
     24.379  0.0000E+00  0.1000E+02
     24.478  0.0000E+00  0.1000E+02
     24.578  0.0000E+00  0.1000E+02
     24.678  0.0000E+00  0.1000E+02
     24.777  0.0000E+00  0.1000E+02
     24.77735449     -5.13478138  301      8.00489507      1.00000000
     -5.135  0.0000E+00  0.0000E+00  0.0000E+00  0.0000E+00  0.0000E+00  0.0000E+00  0.0000E+00  0.0000E+00  0.0000E+00
     -5.035  0.0000E+00  0.0000E+00  0.0000E+00  0.0000E+00  0.0000E+00  0.0000E+00  0.0000E+00  0.0000E+00  0.0000E+00
     -4.935  0.0000E+00  0.0000E+00  0.0000E+00  0.0000E+00  0.0000E+00  0.0000E+00  0.0000E+00  0.0000E+00  0.0000E+00
     -4.836  0.0000E+00  0.0000E+00  0.0000E+00  0.0000E+00  0.0000E+00  0.0000E+00  0.0000E+00  0.0000E+00  0.0000E+00
     -4.736  0.4120E-28  0.5543E-43  0.5543E-43  0.5543E-43  0.0000E+00  0.0000E+00  0.0000E+00  0.0000E+00  0.0000E+00
     -4.636  0.7695E-25  0.1035E-39  0.1035E-39  0.1035E-39  0.0000E+00  0.0000E+00  0.0000E+00  0.0000E+00  0.0000E+00
     -4.537  0.8614E-22  0.2649E-30  0.2649E-30  0.2649E-30  0.0000E+00  0.0000E+00  0.0000E+00  0.0000E+00  0.0000E+00
     -4.437  0.5761E-19  0.5642E-27  0.5642E-27  0.5642E-27  0.0000E+00  0.0000E+00  0.0000E+00  0.0000E+00  0.0000E+00
     -4.337  0.2294E-16  0.7193E-24  0.7193E-24  0.7193E-24  0.0000E+00  0.0000E+00  0.0000E+00  0.0000E+00  0.0000E+00
     -4.237  0.5426E-14  0.5488E-21  0.5488E-21  0.5488E-21  0.0000E+00  0.0000E+00  0.0000E+00  0.0000E+00  0.0000E+00
     -4.138  0.7545E-12  0.2498E-18  0.2498E-18  0.2498E-18  0.0000E+00  0.0000E+00  0.0000E+00  0.0000E+00  0.0000E+00
     -4.038  0.6121E-10  0.6772E-16  0.6772E-16  0.6772E-16  0.0000E+00  0.0000E+00  0.0000E+00  0.0000E+00  0.0000E+00
     -3.938  0.2855E-08  0.1084E-13  0.1084E-13  0.1084E-13  0.0000E+00  0.0000E+00  0.0000E+00  0.0000E+00  0.0000E+00
     -3.839  0.7471E-07  0.1019E-11  0.1019E-11  0.1019E-11  0.0000E+00  0.0000E+00  0.0000E+00  0.0000E+00  0.0000E+00
     -3.739  0.1050E-05  0.5565E-10  0.5565E-10  0.5565E-10  0.0000E+00  0.0000E+00  0.0000E+00  0.0000E+00  0.0000E+00
     -3.639  0.7171E-05  0.1733E-08  0.1733E-08  0.1733E-08  0.0000E+00  0.0000E+00  0.0000E+00  0.0000E+00  0.0000E+00
     -3.539  0.1728E-04  0.2977E-07  0.2977E-07  0.2977E-07  0.0000E+00  0.0000E+00  0.0000E+00  0.0000E+00  0.0000E+00
     -3.440 -0.1550E-04  0.2623E-06  0.2623E-06  0.2623E-06  0.0000E+00  0.0000E+00  0.0000E+00  0.0000E+00  0.0000E+00
     -3.340 -0.2330E-04  0.9367E-06  0.9367E-06  0.9367E-06  0.0000E+00  0.0000E+00  0.0000E+00  0.0000E+00  0.0000E+00
     -3.240  0.2560E-03 -0.6704E-06 -0.6704E-06 -0.6704E-06  0.0000E+00  0.0000E+00  0.0000E+00  0.0000E+00  0.0000E+00
     -3.141  0.1197E-03 -0.1008E-04 -0.1008E-04 -0.1008E-04  0.0000E+00  0.0000E+00  0.0000E+00  0.0000E+00  0.0000E+00
     -3.041  0.2094E-02  0.1497E-06  0.1497E-06  0.1497E-06  0.0000E+00  0.0000E+00  0.0000E+00  0.0000E+00  0.0000E+00
     -2.941  0.1425E-01  0.8671E-04  0.8671E-04  0.8671E-04  0.0000E+00  0.0000E+00  0.0000E+00  0.0000E+00  0.0000E+00
     -2.842  0.2545E-01  0.1659E-03  0.1659E-03  0.1659E-03  0.0000E+00  0.0000E+00  0.0000E+00  0.0000E+00  0.0000E+00
     -2.742  0.1616E-01  0.1035E-03  0.1035E-03  0.1035E-03  0.0000E+00  0.0000E+00  0.0000E+00  0.0000E+00  0.0000E+00
     -2.642  0.6502E-02  0.8274E-04  0.8274E-04  0.8274E-04  0.0000E+00  0.0000E+00  0.0000E+00  0.0000E+00  0.0000E+00
     -2.542  0.1403E-01  0.2156E-03  0.2156E-03  0.2156E-03  0.0000E+00  0.0000E+00  0.0000E+00  0.0000E+00  0.0000E+00
     -2.443  0.2316E-01  0.3890E-03  0.3890E-03  0.3890E-03  0.0000E+00  0.0000E+00  0.0000E+00  0.0000E+00  0.0000E+00
     -2.343  0.4202E-01  0.9069E-03  0.9069E-03  0.9069E-03  0.0000E+00  0.0000E+00  0.0000E+00  0.0000E+00  0.0000E+00
     -2.243  0.5680E-01  0.1306E-02  0.1306E-02  0.1306E-02  0.0000E+00  0.0000E+00  0.0000E+00  0.0000E+00  0.0000E+00
     -2.144  0.3188E-01  0.7444E-03  0.7444E-03  0.7444E-03  0.0000E+00  0.0000E+00  0.0000E+00  0.0000E+00  0.0000E+00
     -2.044  0.3758E-02  0.1095E-03  0.1095E-03  0.1095E-03  0.0000E+00  0.0000E+00  0.0000E+00  0.0000E+00  0.0000E+00
     -1.944  0.1069E-02  0.3673E-04  0.3673E-04  0.3673E-04  0.0000E+00  0.0000E+00  0.0000E+00  0.0000E+00  0.0000E+00
     -1.844  0.1026E-01  0.3415E-03  0.3415E-03  0.3415E-03  0.0000E+00  0.0000E+00  0.0000E+00  0.0000E+00  0.0000E+00
     -1.745  0.4538E-01  0.1796E-02  0.1796E-02  0.1796E-02  0.0000E+00  0.0000E+00  0.0000E+00  0.0000E+00  0.0000E+00
     -1.645  0.7954E-01  0.3226E-02  0.3226E-02  0.3226E-02  0.0000E+00  0.0000E+00  0.0000E+00  0.0000E+00  0.0000E+00
     -1.545  0.5261E-01  0.2144E-02  0.2144E-02  0.2144E-02  0.0000E+00  0.0000E+00  0.0000E+00  0.0000E+00  0.0000E+00
     -1.446  0.1709E-01  0.7974E-03  0.7974E-03  0.7974E-03  0.0000E+00  0.0000E+00  0.0000E+00  0.0000E+00  0.0000E+00
     -1.346  0.2781E-01  0.1435E-02  0.1435E-02  0.1435E-02  0.0000E+00  0.0000E+00  0.0000E+00  0.0000E+00  0.0000E+00
     -1.246  0.4263E-01  0.2230E-02  0.2230E-02  0.2230E-02  0.0000E+00  0.0000E+00  0.0000E+00  0.0000E+00  0.0000E+00
     -1.146  0.5274E-01  0.2997E-02  0.2997E-02  0.2997E-02  0.0000E+00  0.0000E+00  0.0000E+00  0.0000E+00  0.0000E+00
     -1.047  0.4991E-01  0.2924E-02  0.2924E-02  0.2924E-02  0.0000E+00  0.0000E+00  0.0000E+00  0.0000E+00  0.0000E+00
     -0.947  0.1760E-01  0.1031E-02  0.1031E-02  0.1031E-02  0.0000E+00  0.0000E+00  0.0000E+00  0.0000E+00  0.0000E+00
     -0.847  0.8889E-03  0.8419E-04  0.8419E-04  0.8419E-04  0.0000E+00  0.0000E+00  0.0000E+00  0.0000E+00  0.0000E+00
     -0.748  0.7574E-02  0.4832E-03  0.4832E-03  0.4832E-03  0.0000E+00  0.0000E+00  0.0000E+00  0.0000E+00  0.0000E+00
     -0.648  0.2712E-01  0.1963E-02  0.1963E-02  0.1963E-02  0.0000E+00  0.0000E+00  0.0000E+00  0.0000E+00  0.0000E+00
     -0.548  0.8558E-01  0.6642E-02  0.6642E-02  0.6642E-02  0.0000E+00  0.0000E+00  0.0000E+00  0.0000E+00  0.0000E+00
     -0.449  0.1176E+00  0.9217E-02  0.9217E-02  0.9217E-02  0.0000E+00  0.0000E+00  0.0000E+00  0.0000E+00  0.0000E+00
     -0.349  0.6036E-01  0.4750E-02  0.4750E-02  0.4750E-02  0.0000E+00  0.0000E+00  0.0000E+00  0.0000E+00  0.0000E+00
     -0.249  0.1418E-01  0.1290E-02  0.1290E-02  0.1290E-02  0.0000E+00  0.0000E+00  0.0000E+00  0.0000E+00  0.0000E+00
     -0.149  0.2486E-01  0.2337E-02  0.2337E-02  0.2337E-02  0.0000E+00  0.0000E+00  0.0000E+00  0.0000E+00  0.0000E+00
     -0.050  0.3538E-01  0.3287E-02  0.3287E-02  0.3287E-02  0.0000E+00  0.0000E+00  0.0000E+00  0.0000E+00  0.0000E+00
      0.050  0.5370E-01  0.5276E-02  0.5276E-02  0.5276E-02  0.0000E+00  0.0000E+00  0.0000E+00  0.0000E+00  0.0000E+00
      0.150  0.6677E-01  0.6699E-02  0.6699E-02  0.6699E-02  0.0000E+00  0.0000E+00  0.0000E+00  0.0000E+00  0.0000E+00
      0.249  0.3483E-01  0.3531E-02  0.3531E-02  0.3531E-02  0.0000E+00  0.0000E+00  0.0000E+00  0.0000E+00  0.0000E+00
      0.349  0.2715E-02  0.2693E-03  0.2693E-03  0.2693E-03  0.0000E+00  0.0000E+00  0.0000E+00  0.0000E+00  0.0000E+00
      0.449  0.9708E-03  0.5976E-04  0.5976E-04  0.5976E-04  0.0000E+00  0.0000E+00  0.0000E+00  0.0000E+00  0.0000E+00
      0.549  0.3051E-01  0.3663E-02  0.3663E-02  0.3663E-02  0.0000E+00  0.0000E+00  0.0000E+00  0.0000E+00  0.0000E+00
      0.648  0.8609E-01  0.1061E-01  0.1061E-01  0.1061E-01  0.0000E+00  0.0000E+00  0.0000E+00  0.0000E+00  0.0000E+00
      0.748  0.8752E-01  0.1079E-01  0.1079E-01  0.1079E-01  0.0000E+00  0.0000E+00  0.0000E+00  0.0000E+00  0.0000E+00
      0.848  0.3249E-01  0.4043E-02  0.4043E-02  0.4043E-02  0.0000E+00  0.0000E+00  0.0000E+00  0.0000E+00  0.0000E+00
      0.947  0.2804E-01  0.3832E-02  0.3832E-02  0.3832E-02  0.0000E+00  0.0000E+00  0.0000E+00  0.0000E+00  0.0000E+00
      1.047  0.6113E-01  0.8355E-02  0.8355E-02  0.8355E-02  0.0000E+00  0.0000E+00  0.0000E+00  0.0000E+00  0.0000E+00
      1.147  0.8317E-01  0.1185E-01  0.1185E-01  0.1185E-01  0.0000E+00  0.0000E+00  0.0000E+00  0.0000E+00  0.0000E+00
      1.246  0.1008E+00  0.1490E-01  0.1490E-01  0.1490E-01  0.0000E+00  0.0000E+00  0.0000E+00  0.0000E+00  0.0000E+00
      1.346  0.6520E-01  0.9690E-02  0.9690E-02  0.9690E-02  0.0000E+00  0.0000E+00  0.0000E+00  0.0000E+00  0.0000E+00
      1.446  0.7635E-02  0.1160E-02  0.1160E-02  0.1160E-02  0.0000E+00  0.0000E+00  0.0000E+00  0.0000E+00  0.0000E+00
      1.546 -0.5344E-02 -0.7458E-03 -0.7458E-03 -0.7458E-03  0.0000E+00  0.0000E+00  0.0000E+00  0.0000E+00  0.0000E+00
      1.645  0.1680E-02  0.2847E-03  0.2847E-03  0.2847E-03  0.0000E+00  0.0000E+00  0.0000E+00  0.0000E+00  0.0000E+00
      1.745  0.2906E-01  0.5167E-02  0.5167E-02  0.5167E-02  0.0000E+00  0.0000E+00  0.0000E+00  0.0000E+00  0.0000E+00
      1.845  0.7803E-01  0.1408E-01  0.1408E-01  0.1408E-01  0.0000E+00  0.0000E+00  0.0000E+00  0.0000E+00  0.0000E+00
      1.944  0.7460E-01  0.1352E-01  0.1352E-01  0.1352E-01  0.0000E+00  0.0000E+00  0.0000E+00  0.0000E+00  0.0000E+00
      2.044  0.2978E-01  0.5566E-02  0.5566E-02  0.5566E-02  0.0000E+00  0.0000E+00  0.0000E+00  0.0000E+00  0.0000E+00
      2.144  0.2495E-01  0.5042E-02  0.5042E-02  0.5042E-02  0.0000E+00  0.0000E+00  0.0000E+00  0.0000E+00  0.0000E+00
      2.244  0.4168E-01  0.8391E-02  0.8391E-02  0.8391E-02  0.0000E+00  0.0000E+00  0.0000E+00  0.0000E+00  0.0000E+00
      2.343  0.6849E-01  0.1412E-01  0.1412E-01  0.1412E-01  0.0000E+00  0.0000E+00  0.0000E+00  0.0000E+00  0.0000E+00
      2.443  0.8981E-01  0.1872E-01  0.1872E-01  0.1872E-01  0.0000E+00  0.0000E+00  0.0000E+00  0.0000E+00  0.0000E+00
      2.543  0.5236E-01  0.1095E-01  0.1095E-01  0.1095E-01  0.0000E+00  0.0000E+00  0.0000E+00  0.0000E+00  0.0000E+00
      2.642  0.1045E-01  0.2294E-02  0.2294E-02  0.2294E-02  0.0000E+00  0.0000E+00  0.0000E+00  0.0000E+00  0.0000E+00
      2.742  0.1136E-01  0.2600E-02  0.2600E-02  0.2600E-02  0.0000E+00  0.0000E+00  0.0000E+00  0.0000E+00  0.0000E+00
      2.842  0.3713E-01  0.9221E-02  0.9221E-02  0.9221E-02  0.0000E+00  0.0000E+00  0.0000E+00  0.0000E+00  0.0000E+00
      2.941  0.9597E-01  0.2491E-01  0.2491E-01  0.2491E-01  0.0000E+00  0.0000E+00  0.0000E+00  0.0000E+00  0.0000E+00
      3.041  0.1198E+00  0.3099E-01  0.3099E-01  0.3099E-01  0.0000E+00  0.0000E+00  0.0000E+00  0.0000E+00  0.0000E+00
      3.141  0.5679E-01  0.1461E-01  0.1461E-01  0.1461E-01  0.0000E+00  0.0000E+00  0.0000E+00  0.0000E+00  0.0000E+00
      3.241  0.6669E-02  0.2888E-02  0.2888E-02  0.2888E-02  0.0000E+00  0.0000E+00  0.0000E+00  0.0000E+00  0.0000E+00
      3.340  0.1277E-01  0.5945E-02  0.5945E-02  0.5945E-02  0.0000E+00  0.0000E+00  0.0000E+00  0.0000E+00  0.0000E+00
      3.440  0.3551E-01  0.1220E-01  0.1220E-01  0.1220E-01  0.0000E+00  0.0000E+00  0.0000E+00  0.0000E+00  0.0000E+00
      3.540  0.4979E-01  0.1569E-01  0.1569E-01  0.1569E-01  0.0000E+00  0.0000E+00  0.0000E+00  0.0000E+00  0.0000E+00
      3.639  0.3000E-01  0.9115E-02  0.9115E-02  0.9115E-02  0.0000E+00  0.0000E+00  0.0000E+00  0.0000E+00  0.0000E+00
      3.739  0.4248E-02  0.1601E-02  0.1601E-02  0.1601E-02  0.0000E+00  0.0000E+00  0.0000E+00  0.0000E+00  0.0000E+00
      3.839  0.4650E-02  0.3694E-02  0.3694E-02  0.3694E-02  0.0000E+00  0.0000E+00  0.0000E+00  0.0000E+00  0.0000E+00
      3.939  0.1506E-01  0.8003E-02  0.8003E-02  0.8003E-02  0.0000E+00  0.0000E+00  0.0000E+00  0.0000E+00  0.0000E+00
      4.038  0.5224E-01  0.1756E-01  0.1756E-01  0.1756E-01  0.0000E+00  0.0000E+00  0.0000E+00  0.0000E+00  0.0000E+00
      4.138  0.9671E-01  0.2800E-01  0.2800E-01  0.2800E-01  0.0000E+00  0.0000E+00  0.0000E+00  0.0000E+00  0.0000E+00
      4.238  0.7165E-01  0.2002E-01  0.2002E-01  0.2002E-01  0.0000E+00  0.0000E+00  0.0000E+00  0.0000E+00  0.0000E+00
      4.337  0.3052E-01  0.1376E-01  0.1376E-01  0.1376E-01  0.0000E+00  0.0000E+00  0.0000E+00  0.0000E+00  0.0000E+00
      4.437  0.3415E-01  0.2188E-01  0.2188E-01  0.2188E-01  0.0000E+00  0.0000E+00  0.0000E+00  0.0000E+00  0.0000E+00
      4.537  0.4403E-01  0.2405E-01  0.2405E-01  0.2405E-01  0.0000E+00  0.0000E+00  0.0000E+00  0.0000E+00  0.0000E+00
      4.637  0.7208E-01  0.2915E-01  0.2915E-01  0.2915E-01  0.0000E+00  0.0000E+00  0.0000E+00  0.0000E+00  0.0000E+00
      4.736  0.8854E-01  0.3100E-01  0.3100E-01  0.3100E-01  0.0000E+00  0.0000E+00  0.0000E+00  0.0000E+00  0.0000E+00
      4.836  0.4330E-01  0.1330E-01  0.1330E-01  0.1330E-01  0.0000E+00  0.0000E+00  0.0000E+00  0.0000E+00  0.0000E+00
      4.936 -0.2726E-02 -0.2130E-02 -0.2130E-02 -0.2130E-02  0.0000E+00  0.0000E+00  0.0000E+00  0.0000E+00  0.0000E+00
      5.035 -0.1327E-01 -0.4490E-02 -0.4490E-02 -0.4490E-02  0.0000E+00  0.0000E+00  0.0000E+00  0.0000E+00  0.0000E+00
      5.135  0.1285E-01  0.7857E-02  0.7857E-02  0.7857E-02  0.0000E+00  0.0000E+00  0.0000E+00  0.0000E+00  0.0000E+00
      5.235  0.8172E-01  0.3302E-01  0.3302E-01  0.3302E-01  0.0000E+00  0.0000E+00  0.0000E+00  0.0000E+00  0.0000E+00
      5.334  0.1139E+00  0.4054E-01  0.4054E-01  0.4054E-01  0.0000E+00  0.0000E+00  0.0000E+00  0.0000E+00  0.0000E+00
      5.434  0.6705E-01  0.2798E-01  0.2798E-01  0.2798E-01  0.0000E+00  0.0000E+00  0.0000E+00  0.0000E+00  0.0000E+00
      5.534  0.2081E-01  0.1922E-01  0.1922E-01  0.1922E-01  0.0000E+00  0.0000E+00  0.0000E+00  0.0000E+00  0.0000E+00
      5.634  0.5517E-02  0.1200E-01  0.1200E-01  0.1200E-01  0.0000E+00  0.0000E+00  0.0000E+00  0.0000E+00  0.0000E+00
      5.733  0.9115E-02  0.1399E-01  0.1399E-01  0.1399E-01  0.0000E+00  0.0000E+00  0.0000E+00  0.0000E+00  0.0000E+00
      5.833  0.2215E-01  0.2033E-01  0.2033E-01  0.2033E-01  0.0000E+00  0.0000E+00  0.0000E+00  0.0000E+00  0.0000E+00
      5.933  0.1809E-01  0.1152E-01  0.1152E-01  0.1152E-01  0.0000E+00  0.0000E+00  0.0000E+00  0.0000E+00  0.0000E+00
      6.032  0.3649E-02  0.1149E-02  0.1149E-02  0.1149E-02  0.0000E+00  0.0000E+00  0.0000E+00  0.0000E+00  0.0000E+00
      6.132 -0.3100E-02 -0.1393E-03 -0.1393E-03 -0.1393E-03  0.0000E+00  0.0000E+00  0.0000E+00  0.0000E+00  0.0000E+00
      6.232  0.1042E-01  0.9410E-02  0.9410E-02  0.9410E-02  0.0000E+00  0.0000E+00  0.0000E+00  0.0000E+00  0.0000E+00
      6.332  0.6173E-01  0.3589E-01  0.3589E-01  0.3589E-01  0.0000E+00  0.0000E+00  0.0000E+00  0.0000E+00  0.0000E+00
      6.431  0.9529E-01  0.4673E-01  0.4673E-01  0.4673E-01  0.0000E+00  0.0000E+00  0.0000E+00  0.0000E+00  0.0000E+00
      6.531  0.6739E-01  0.2536E-01  0.2536E-01  0.2536E-01  0.0000E+00  0.0000E+00  0.0000E+00  0.0000E+00  0.0000E+00
      6.631  0.3390E-01  0.9737E-02  0.9737E-02  0.9737E-02  0.0000E+00  0.0000E+00  0.0000E+00  0.0000E+00  0.0000E+00
      6.730  0.2362E-01  0.1182E-01  0.1182E-01  0.1182E-01  0.0000E+00  0.0000E+00  0.0000E+00  0.0000E+00  0.0000E+00
      6.830  0.3643E-01  0.3003E-01  0.3003E-01  0.3003E-01  0.0000E+00  0.0000E+00  0.0000E+00  0.0000E+00  0.0000E+00
      6.930  0.6346E-01  0.5049E-01  0.5049E-01  0.5049E-01  0.0000E+00  0.0000E+00  0.0000E+00  0.0000E+00  0.0000E+00
      7.029  0.6435E-01  0.3584E-01  0.3584E-01  0.3584E-01  0.0000E+00  0.0000E+00  0.0000E+00  0.0000E+00  0.0000E+00
      7.129  0.4553E-01  0.6746E-02  0.6746E-02  0.6746E-02  0.0000E+00  0.0000E+00  0.0000E+00  0.0000E+00  0.0000E+00
      7.229  0.3214E-01  0.2197E-02  0.2197E-02  0.2197E-02  0.0000E+00  0.0000E+00  0.0000E+00  0.0000E+00  0.0000E+00
      7.329  0.2075E-01  0.1282E-01  0.1282E-01  0.1282E-01  0.0000E+00  0.0000E+00  0.0000E+00  0.0000E+00  0.0000E+00
      7.428  0.1244E-01  0.1916E-01  0.1916E-01  0.1916E-01  0.0000E+00  0.0000E+00  0.0000E+00  0.0000E+00  0.0000E+00
      7.528  0.7538E-02  0.1296E-01  0.1296E-01  0.1296E-01  0.0000E+00  0.0000E+00  0.0000E+00  0.0000E+00  0.0000E+00
      7.628  0.1114E-01  0.6075E-02  0.6075E-02  0.6075E-02  0.0000E+00  0.0000E+00  0.0000E+00  0.0000E+00  0.0000E+00
      7.727  0.4742E-01  0.1610E-01  0.1610E-01  0.1610E-01  0.0000E+00  0.0000E+00  0.0000E+00  0.0000E+00  0.0000E+00
      7.827  0.7616E-01  0.2397E-01  0.2397E-01  0.2397E-01  0.0000E+00  0.0000E+00  0.0000E+00  0.0000E+00  0.0000E+00
      7.927  0.5405E-01  0.1887E-01  0.1887E-01  0.1887E-01  0.0000E+00  0.0000E+00  0.0000E+00  0.0000E+00  0.0000E+00
      8.027  0.3859E-01  0.2260E-01  0.2260E-01  0.2260E-01  0.0000E+00  0.0000E+00  0.0000E+00  0.0000E+00  0.0000E+00
      8.126  0.3522E-01  0.2180E-01  0.2180E-01  0.2180E-01  0.0000E+00  0.0000E+00  0.0000E+00  0.0000E+00  0.0000E+00
      8.226  0.2922E-01  0.7664E-02  0.7664E-02  0.7664E-02  0.0000E+00  0.0000E+00  0.0000E+00  0.0000E+00  0.0000E+00
      8.326  0.3014E-01  0.3399E-04  0.3399E-04  0.3399E-04  0.0000E+00  0.0000E+00  0.0000E+00  0.0000E+00  0.0000E+00
      8.425  0.1485E-01  0.5288E-02  0.5288E-02  0.5288E-02  0.0000E+00  0.0000E+00  0.0000E+00  0.0000E+00  0.0000E+00
      8.525  0.1511E-01  0.2461E-01  0.2461E-01  0.2461E-01  0.0000E+00  0.0000E+00  0.0000E+00  0.0000E+00  0.0000E+00
      8.625  0.5403E-01  0.4069E-01  0.4069E-01  0.4069E-01  0.0000E+00  0.0000E+00  0.0000E+00  0.0000E+00  0.0000E+00
      8.725  0.6669E-01  0.3568E-01  0.3568E-01  0.3568E-01  0.0000E+00  0.0000E+00  0.0000E+00  0.0000E+00  0.0000E+00
      8.824  0.6022E-01  0.2806E-01  0.2806E-01  0.2806E-01  0.0000E+00  0.0000E+00  0.0000E+00  0.0000E+00  0.0000E+00
      8.924  0.9060E-01  0.2953E-01  0.2953E-01  0.2953E-01  0.0000E+00  0.0000E+00  0.0000E+00  0.0000E+00  0.0000E+00
      9.024  0.9269E-01  0.3172E-01  0.3172E-01  0.3172E-01  0.0000E+00  0.0000E+00  0.0000E+00  0.0000E+00  0.0000E+00
      9.123  0.4485E-01  0.3322E-01  0.3322E-01  0.3322E-01  0.0000E+00  0.0000E+00  0.0000E+00  0.0000E+00  0.0000E+00
      9.223  0.1695E-01  0.2475E-01  0.2475E-01  0.2475E-01  0.0000E+00  0.0000E+00  0.0000E+00  0.0000E+00  0.0000E+00
      9.323  0.1833E-01  0.1122E-01  0.1122E-01  0.1122E-01  0.0000E+00  0.0000E+00  0.0000E+00  0.0000E+00  0.0000E+00
      9.422  0.1636E-01  0.3760E-02  0.3760E-02  0.3760E-02  0.0000E+00  0.0000E+00  0.0000E+00  0.0000E+00  0.0000E+00
      9.522  0.3429E-02 -0.8034E-04 -0.8034E-04 -0.8034E-04  0.0000E+00  0.0000E+00  0.0000E+00  0.0000E+00  0.0000E+00
      9.622  0.8681E-02  0.1073E-01  0.1073E-01  0.1073E-01  0.0000E+00  0.0000E+00  0.0000E+00  0.0000E+00  0.0000E+00
      9.722  0.3712E-01  0.3112E-01  0.3112E-01  0.3112E-01  0.0000E+00  0.0000E+00  0.0000E+00  0.0000E+00  0.0000E+00
      9.821  0.5585E-01  0.3207E-01  0.3207E-01  0.3207E-01  0.0000E+00  0.0000E+00  0.0000E+00  0.0000E+00  0.0000E+00
      9.921  0.5766E-01  0.1998E-01  0.1998E-01  0.1998E-01  0.0000E+00  0.0000E+00  0.0000E+00  0.0000E+00  0.0000E+00
     10.021  0.6406E-01  0.1402E-01  0.1402E-01  0.1402E-01  0.0000E+00  0.0000E+00  0.0000E+00  0.0000E+00  0.0000E+00
     10.120  0.9770E-01  0.2330E-01  0.2330E-01  0.2330E-01  0.0000E+00  0.0000E+00  0.0000E+00  0.0000E+00  0.0000E+00
     10.220  0.1174E+00  0.4319E-01  0.4319E-01  0.4319E-01  0.0000E+00  0.0000E+00  0.0000E+00  0.0000E+00  0.0000E+00
     10.320  0.6725E-01  0.3814E-01  0.3814E-01  0.3814E-01  0.0000E+00  0.0000E+00  0.0000E+00  0.0000E+00  0.0000E+00
     10.420  0.2364E-01  0.1561E-01  0.1561E-01  0.1561E-01  0.0000E+00  0.0000E+00  0.0000E+00  0.0000E+00  0.0000E+00