    1    1   51    2
  0.1647114E+02  0.2855921E-09  0.2855921E-09  0.2855921E-09  0.5000000E-15
  1.000000000000000E-004
  CAR 
 Al                                      
    3  256   36
 
  0.3742002E-15  0.3742002E-15  0.3742002E-15  0.1250000E-03
   1       -3.1278     -3.1278
   2       20.6548     20.6548
   3       20.6548     20.6548
   4       20.6548     20.6548
   5       22.1531     22.1531
   6       22.1531     22.1531
   7       22.1531     22.1531
   8       24.4980     24.4980
   9       27.4776     27.4776
  10       27.4776     27.4776
  11       30.3307     30.3305
  12       32.6868     32.6868
  13       32.6868     32.6868
  14       32.6868     32.6868
  15       41.3421     41.3423
  16       56.9166     56.9159
  17       58.3025     58.3024
  18       58.3025     58.3024
  19       58.3025     58.3024
  20       59.5856     59.5858
  21       59.5856     59.5858
  22       59.5856     59.5858
  23       63.2104     63.2106
  24       63.2104     63.2106
  25       65.4088     65.4087
  26       65.4088     65.4087
  27       65.4088     65.4087
  28       73.9418     73.9418
  29       73.9418     73.9418
  30       73.9419     73.9418
  31       81.2880     81.2878
  32       83.6552     83.6551
  33       83.6552     83.6551
  34       87.7280     87.7280
  35       87.7280     87.7280
  36       87.7280     87.7280
 
  0.5000000E-01  0.3712308E-15  0.3712308E-15  0.1000000E-02
   1       -3.0597     -3.0597
   2       19.3485     19.3485
   3       20.3934     20.3934
   4       20.3934     20.3934
   5       22.5236     22.5235
   6       22.5236     22.5235
   7       22.6890     22.6890
   8       25.2249     25.2249
   9       27.0750     27.0749
  10       27.0750     27.0749
  11       30.0702     30.0700
  12       33.0460     33.0460
  13       33.2324     33.2324
  14       33.2325     33.2325
  15       41.6248     41.6250
  16       56.9455     56.9449
  17       58.2277     58.2277
  18       58.2277     58.2277
  19       58.5351     58.5350
  20       59.2206     59.2206
  21       59.2206     59.2206
  22       60.3463     60.3463
  23       62.3459     62.3460
  24       62.3460     62.3460
  25       65.4699     65.4698
  26       67.2036     67.2036
  27       67.2036     67.2036
  28       73.3938     73.3937
  29       73.9197     73.9196
  30       73.9197     73.9196
  31       82.0622     82.0620
  32       83.3295     83.3294
  33       83.3295     83.3294
  34       86.1258     86.1258
  35       87.1973     87.1973
  36       87.1973     87.1973
 
  0.1000000E+00  0.3747003E-15  0.3747003E-15  0.1000000E-02
   1       -2.8557     -2.8557
   2       17.3632     17.3632
   3       19.9329     19.9329
   4       19.9329     19.9329
   5       22.8084     22.8084
   6       23.2867     23.2866
   7       23.2867     23.2866
   8       26.1877     26.1877
   9       26.1877     26.1877
  10       26.9598     26.9598
  11       29.4383     29.4381
  12       34.0119     34.0118
  13       34.5477     34.5477
  14       34.5477     34.5477
  15       42.4055     42.4057
  16       56.3017     56.3018
  17       56.3017     56.3018
  18       56.5758     56.5754
  19       58.1439     58.1437
  20       59.0995     59.0994
  21       59.0995     59.0994
  22       61.7440     61.7439
  23       61.9408     61.9409
  24       61.9408     61.9410
  25       65.6526     65.6525
  26       69.9310     69.9310
  27       69.9310     69.9310
  28       71.9538     71.9537
  29       73.6654     73.6653
  30       73.6654     73.6653
  31       82.1310     82.1309
  32       82.1310     82.1309
  33       82.6725     82.6724
  34       84.8417     84.8416
  35       86.0945     86.0946
  36       86.0945     86.0946
 
  0.1500000E+00  0.3747003E-15  0.3747003E-15  0.1000000E-02
   1       -2.5164     -2.5164
   2       15.3376     15.3376
   3       19.5108     19.5108
   4       19.5108     19.5108
   5       22.6829     22.6828
   6       24.0324     24.0324
   7       24.0324     24.0324
   8       25.3740     25.3740
   9       25.3740     25.3740
  10       28.6182     28.6180
  11       28.9173     28.9173
  12       35.4817     35.4817
  13       36.2503     36.2503
  14       36.2503     36.2503
  15       43.5756     43.5757
  16       53.7600     53.7600
  17       53.7600     53.7600
  18       55.7583     55.7581
  19       58.1433     58.1429
  20       59.8287     59.8286
  21       59.8287     59.8287
  22       62.0036     62.0037
  23       62.0036     62.0037
  24       62.6739     62.6738
  25       65.9627     65.9626
  26       70.3594     70.3594
  27       72.0636     72.0635
  28       72.0636     72.0635
  29       73.6848     73.6848
  30       73.6848     73.6848
  31       80.3998     80.3997
  32       80.3998     80.3997
  33       80.6485     80.6484
  34       84.5063     84.5064
  35       84.5063     84.5064
  36       86.6730     86.6625
 
  0.2000000E+00  0.3608225E-15  0.3608225E-15  0.1000000E-02
   1       -2.0428     -2.0428
   2       13.3611     13.3610
   3       19.1756     19.1756
   4       19.1756     19.1756
   5       22.5199     22.5199
   6       23.6964     23.6964
   7       23.6964     23.6964
   8       25.7877     25.7877
   9       25.7877     25.7877
  10       27.7180     27.7179
  11       30.8384     30.8384
  12       37.3945     37.3945
  13       38.1630     38.1630
  14       38.1630     38.1630
  15       45.0086     45.0087
  16       51.1629     51.1630
  17       51.1629     51.1630
  18       54.5962     54.5961
  19       58.0533     58.0528
  20       59.8129     59.8128
  21       59.8129     59.8128
  22       62.2169     62.2170
  23       62.2169     62.2170
  24       62.6911     62.6909
  25       66.3768     66.3767
  26       68.9378     68.9378
  27       71.3078     71.3077
  28       71.3078     71.3077
  29       75.1079     75.1079
  30       75.1079     75.1079
  31       78.6330     78.6329
  32       79.2085     79.2085
  33       79.2085     79.2085
  34       82.5984     82.5985
  35       82.5984     82.5985
  36       84.4965     84.4801
 
  0.2500000E+00  0.3608225E-15  0.3608225E-15  0.1000000E-02
   1       -1.4361     -1.4361
   2       11.4641     11.4641
   3       18.9454     18.9454
   4       18.9454     18.9454
   5       22.3960     22.3959
   6       22.8043     22.8043
   7       22.8043     22.8043
   8       26.8059     26.8058
   9       26.9450     26.9450
  10       26.9450     26.9450
  11       32.6869     32.6869
  12       39.6593     39.6593
  13       40.1844     40.1844
  14       40.1844     40.1844
  15       46.6275     46.6276
  16       48.6824     48.6825
  17       48.6824     48.6825
  18       53.1358     53.1358
  19       58.1318     58.1312
  20       60.0079     60.0078
  21       60.0079     60.0078
  22       61.8457     61.8455
  23       62.5051     62.5053
  24       62.5051     62.5053
  25       66.9070     66.9069
  26       67.7798     67.7798
  27       69.3029     69.3029
  28       69.3029     69.3029
  29       75.3550     75.3549
  30       75.3550     75.3549
  31       76.9781     76.9780
  32       79.6493     79.6493
  33       79.6493     79.6493
  34       80.3517     80.3517
  35       80.8852     80.8853
  36       80.8852     80.8853
 
  0.3000000E+00  0.3885781E-15  0.3885781E-15  0.1000000E-02
   1       -0.6981     -0.6981
   2        9.6617      9.6617
   3       18.8245     18.8245
   4       18.8245     18.8245
   5       21.9362     21.9362
   6       21.9362     21.9362
   7       22.3493     22.3493
   8       25.9286     25.9286
   9       28.2768     28.2768
  10       28.2768     28.2768
  11       34.4720     34.4719
  12       42.0594     42.0594
  13       42.0594     42.0594
  14       42.1577     42.1577
  15       46.6287     46.6287
  16       46.6287     46.6287
  17       48.2480     48.2480
  18       51.9161     51.9161
  19       58.1802     58.1796
  20       60.0141     60.0140
  21       60.0141     60.0140
  22       61.1380     61.1379
  23       62.6791     62.6792
  24       62.6791     62.6792
  25       66.9485     66.9485
  26       66.9485     66.9485
  27       67.0022     67.0022
  28       67.5093     67.5092
  29       74.7350     74.7349
  30       74.8803     74.8802
  31       74.8803     74.8802
  32       77.6118     77.6117
  33       79.0116     79.0117
  34       79.0116     79.0117
  35       80.6120     80.6120
  36       80.9386     80.9386
 
  0.3500000E+00  0.3885781E-15  0.3885781E-15  0.1000000E-02
   1        0.1692      0.1692
   2        7.9613      7.9613
   3       18.8156     18.8156
   4       18.8156     18.8156
   5       21.1576     21.1575
   6       21.1576     21.1575
   7       22.3999     22.3998
   8       25.1158     25.1158
   9       29.6903     29.6902
  10       29.6903     29.6902
  11       36.1986     36.1986
  12       42.4615     42.4615
  13       42.4615     42.4615
  14       44.7010     44.7010
  15       46.3261     46.3261
  16       46.3261     46.3261
  17       48.8450     48.8450
  18       51.8275     51.8275
  19       58.1305     58.1299
  20       59.3118     59.3118
  21       59.8464     59.8463
  22       59.8464     59.8463
  23       62.2352     62.2353
  24       62.2352     62.2353
  25       65.0733     65.0733
  26       65.0733     65.0733
  27       66.0481     66.0480
  28       68.1630     68.1629
  29       71.0872     71.0871
  30       74.4665     74.4664
  31       74.4665     74.4664
  32       77.0703     77.0703
  33       77.6934     77.6935
  34       77.6934     77.6935
  35       78.9996     78.9995
  36       81.4091     81.4091
 
  0.4000000E+00  0.3885781E-15  0.3885781E-15  0.1000000E-02
   1        1.1635      1.1635
   2        6.3705      6.3705
   3       18.9201     18.9201
   4       18.9201     18.9201
   5       20.4842     20.4842
   6       20.4842     20.4842
   7       22.5614     22.5614
   8       24.3908     24.3908
   9       31.1062     31.1061
  10       31.1062     31.1061
  11       37.8175     37.8175
  12       41.0147     41.0147
  13       41.0147     41.0147
  14       46.6670     46.6671
  15       48.1883     48.1883
  16       48.1883     48.1883
  17       48.3372     48.3372
  18       53.6560     53.6559
  19       57.2523     57.2522
  20       58.3627     58.3622
  21       59.0094     59.0094
  22       59.0094     59.0094
  23       60.9382     60.9381
  24       60.9382     60.9381
  25       64.6119     64.6121
  26       64.6119     64.6121
  27       64.9494     64.9492
  28       67.5042     67.5041
  29       68.8035     68.8034
  30       74.1880     74.1879
  31       74.1880     74.1879
  32       76.6416     76.6416
  33       76.6416     76.6416
  34       77.2011     77.2010
  35       77.6745     77.6744
  36       81.5815     81.5815
 
  0.4500000E+00  0.3885781E-15  0.3885781E-15  0.1000000E-02
   1        2.2812      2.2811
   2        4.8945      4.8945
   3       19.1405     19.1405
   4       19.1405     19.1405
   5       19.9243     19.9243
   6       19.9243     19.9243
   7       22.8399     22.8398
   8       23.7700     23.7700
   9       32.3331     32.3330
  10       32.3331     32.3330
  11       39.1463     39.1463
  12       39.5511     39.5511
  13       39.5511     39.5511
  14       46.1664     46.1665
  15       49.8797     49.8798
  16       50.4590     50.4591
  17       50.4590     50.4591
  18       55.7218     55.7218
  19       56.0718     56.0716
  20       57.0479     57.0479
  21       57.0479     57.0479
  22       58.5429     58.5425
  23       60.9742     60.9741
  24       60.9742     60.9741
  25       63.0913     63.0912
  26       64.6968     64.6969
  27       64.6968     64.6969
  28       65.4224     65.4222
  29       69.3203     69.3201
  30       74.0380     74.0380
  31       74.0380     74.0380
  32       75.9562     75.9562
  33       75.9562     75.9562
  34       76.7568     76.7567
  35       77.4661     77.4660
  36       81.7535     81.7535
 
  0.5000000E+00  0.3330669E-15  0.3330669E-15  0.5000000E-03
   1        3.4192      3.4191
   2        3.6371      3.6372
   3       19.4476     19.4476
   4       19.4476     19.4476
   5       19.5028     19.5027
   6       19.5028     19.5027
   7       23.1597     23.1596
   8       23.3349     23.3350
   9       32.8845     32.8845
  10       32.8845     32.8845
  11       38.9055     38.9055
  12       38.9055     38.9055
  13       39.7214     39.7213
  14       45.6746     45.6747
  15       51.0043     51.0043
  16       51.8593     51.8594
  17       51.8593     51.8594
  18       54.8620     54.8621
  19       55.6211     55.6210
  20       55.6211     55.6210
  21       57.4931     57.4925
  22       59.0369     59.0367
  23       60.9126     60.9125
  24       60.9126     60.9125
  25       61.0355     61.0354
  26       64.7509     64.7511
  27       64.7509     64.7511
  28       65.2220     65.2218
  29       69.5217     69.5216
  30       73.9910     73.9910
  31       73.9910     73.9910
  32       75.7150     75.7150
  33       75.7150     75.7150
  34       76.4183     76.4183
  35       77.6283     77.6282
  36       81.7642     81.7642
 
  0.5000000E-01  0.5000000E-01  0.3742002E-15  0.7500000E-03
   1       -3.0370     -3.0371
   2       19.7694     19.7694
   3       19.7694     19.7694
   4       20.0154     20.0154
   5       21.9329     21.9329
   6       23.1776     23.1775
   7       23.1776     23.1775
   8       25.3217     25.3217
   9       26.3381     26.3381
  10       27.5636     27.5635
  11       30.3136     30.3134
  12       32.7899     32.7899
  13       32.7899     32.7899
  14       34.0279     34.0279
  15       41.7304     41.7306
  16       56.9445     56.9438
  17       57.8269     57.8269
  18       57.8269     57.8269
  19       59.2126     59.2125
  20       59.5117     59.5117
  21       59.5117     59.5117
  22       59.6566     59.6567
  23       60.7572     60.7573
  24       63.3248     63.3249
  25       66.3881     66.3880
  26       66.3881     66.3880
  27       68.0050     68.0050
  28       72.9175     72.9174
  29       74.0443     74.0443
  30       74.0443     74.0443
  31       81.9257     81.9255
  32       83.4502     83.4500
  33       83.4729     83.4728
  34       86.0892     86.0892
  35       86.0892     86.0892
  36       86.3032     86.3031
 
  0.1000000E+00  0.5000000E-01  0.3712308E-15  0.3000000E-02
   1       -2.8784     -2.8784
   2       18.0421     18.0421
   3       19.1870     19.1870
   4       20.0646     20.0646
   5       22.0613     22.0613
   6       23.5755     23.5755
   7       23.9939     23.9939
   8       25.2376     25.2375
   9       26.6490     26.6490
  10       27.2597     27.2596
  11       30.1201     30.1200
  12       33.3932     33.3932
  13       33.4346     33.4346
  14       35.2376     35.2376
  15       42.3871     42.3873
  16       56.3115     56.3116
  17       56.4674     56.4672
  18       57.3002     57.2999
  19       58.4219     58.4220
  20       59.5812     59.5812
  21       59.7040     59.7040
  22       60.3113     60.3113
  23       61.1590     61.1589
  24       62.9905     62.9906
  25       66.8809     66.8808
  26       68.3531     68.3531
  27       70.3272     70.3271
  28       71.7962     71.7961
  29       73.8423     73.8423
  30       74.0968     74.0967
  31       81.5973     81.5972
  32       82.6816     82.6815
  33       83.6744     83.6743
  34       84.3288     84.3286
  35       84.8157     84.8156
  36       85.4590     85.4589
 
  0.1500000E+00  0.5000000E-01  0.3816392E-15  0.3000000E-02
   1       -2.5842     -2.5842
   2       16.0408     16.0408
   3       18.6952     18.6952
   4       19.8451     19.8451
   5       22.6825     22.6825
   6       23.5413     23.5413
   7       24.1530     24.1530
   8       24.8284     24.8284
   9       26.5617     26.5617
  10       28.5372     28.5372
  11       29.4444     29.4443
  12       34.7572     34.7571
  13       34.8357     34.8357
  14       36.7532     36.7532
  15       43.4705     43.4707
  16       53.7674     53.7674
  17       54.6991     54.6992
  18       56.6312     56.6309
  19       57.7588     57.7586
  20       59.5095     59.5095
  21       59.7214     59.7213
  22       60.5619     60.5619
  23       62.2893     62.2892
  24       62.7177     62.7178
  25       67.1950     67.1950
  26       69.6208     69.6207
  27       71.7778     71.7778
  28       72.4750     72.4749
  29       73.0169     73.0168
  30       74.2846     74.2846
  31       79.7840     79.7839
  32       80.6566     80.6565
  33       82.1291     82.1291
  34       84.0467     84.0467
  35       84.1385     84.1385
  36       85.3651     85.3649
 
  0.2000000E+00  0.5000000E-01  0.3747003E-15  0.3000000E-02
   1       -2.1554     -2.1554
   2       14.0547     14.0547
   3       18.3080     18.3079
   4       19.5542     19.5542
   5       22.6431     22.6431
   6       23.3786     23.3786
   7       24.0980     24.0980
   8       24.9371     24.9371
   9       26.5682     26.5682
  10       28.5803     28.5802
  11       30.4881     30.4881
  12       36.6063     36.6062
  13       36.6104     36.6104
  14       38.5020     38.5020
  15       44.8589     44.8590
  16       51.1165     51.1166
  17       52.3956     52.3957
  18       55.4537     55.4536
  19       57.7541     57.7537
  20       59.5452     59.5452
  21       59.7547     59.7546
  22       60.7554     60.7554
  23       62.6616     62.6615
  24       62.7920     62.7920
  25       67.5363     67.5362
  26       68.4947     68.4946
  27       71.5999     71.5998
  28       72.4718     72.4717
  29       73.9152     73.9152
  30       75.6114     75.6115
  31       77.8006     77.8006
  32       78.6979     78.6979
  33       80.8977     80.8977
  34       82.5039     82.5039
  35       82.6891     82.6891
  36       85.1674     85.1673
 
  0.2500000E+00  0.5000000E-01  0.3608225E-15  0.3000000E-02
   1       -1.5931     -1.5931
   2       12.1352     12.1352
   3       18.0313     18.0313
   4       19.3189     19.3189
   5       21.7204     21.7204
   6       23.2241     23.2241
   7       24.1495     24.1495
   8       25.1630     25.1630
   9       27.5955     27.5955
  10       27.7055     27.7054
  11       32.3649     32.3649
  12       38.5735     38.5735
  13       38.8265     38.8265
  14       40.4034     40.4034
  15       46.4596     46.4597
  16       48.5699     48.5699
  17       49.9943     49.9944
  18       54.0986     54.0986
  19       57.7297     57.7293
  20       59.8475     59.8475
  21       59.9667     59.9666
  22       61.1041     61.1042
  23       62.2854     62.2852
  24       63.0357     63.0358
  25       67.2859     67.2859
  26       67.9062     67.9061
  27       69.6301     69.6301
  28       71.2848     71.2847
  29       74.2925     74.2925
  30       75.2448     75.2447
  31       77.6583     77.6582
  32       78.5301     78.5301
  33       79.5558     79.5558
  34       81.1404     81.1404
  35       81.3520     81.3520
  36       82.1159     82.1158
 
  0.3000000E+00  0.5000000E-01  0.3608225E-15  0.3000000E-02
   1       -0.8990     -0.8990
   2       10.3034     10.3034
   3       17.8675     17.8674
   4       19.1751     19.1751
   5       20.7976     20.7976
   6       23.1497     23.1497
   7       23.2833     23.2833
   8       26.1929     26.1928
   9       27.0955     27.0955
  10       28.8606     28.8606
  11       34.1732     34.1732
  12       40.5420     40.5420
  13       41.3109     41.3109
  14       42.2965     42.2965
  15       46.3085     46.3085
  16       47.7962     47.7963
  17       48.1476     48.1477
  18       52.6694     52.6694
  19       57.7727     57.7722
  20       59.8031     59.8030
  21       59.8330     59.8329
  22       61.2622     61.2623
  23       61.2995     61.2993
  24       63.2646     63.2647
  25       65.9947     65.9946
  26       67.6042     67.6042
  27       67.8760     67.8759
  28       69.6674     69.6673
  29       73.4368     73.4367
  30       74.0931     74.0931
  31       76.4033     76.4032
  32       78.0869     78.0869
  33       78.9095     78.9095
  34       79.1589     79.1589
  35       80.8107     80.8107
  36       81.1438     81.1438
 
  0.3500000E+00  0.5000000E-01  0.3885781E-15  0.3000000E-02
   1       -0.0749     -0.0749
   2        8.5701      8.5701
   3       17.8179     17.8179
   4       19.1384     19.1384
   5       19.9677     19.9676
   6       22.4871     22.4871
   7       23.1660     23.1660
   8       25.8097     25.8096
   9       28.0768     28.0768
  10       30.2108     30.2108
  11       35.9248     35.9248
  12       41.7159     41.7159
  13       43.3499     43.3499
  14       43.9081     43.9082
  15       45.1727     45.1727
  16       46.6882     46.6882
  17       49.2719     49.2719
  18       51.9700     51.9700
  19       58.0605     58.0599
  20       59.5994     59.5994
  21       59.9288     59.9287
  22       60.0624     60.0623
  23       61.3439     61.3440
  24       63.0829     63.0828
  25       64.3924     64.3924
  26       66.2090     66.2089
  27       66.3413     66.3412
  28       69.5127     69.5126
  29       72.4647     72.4645
  30       73.1121     73.1121
  31       73.2338     73.2338
  32       76.9949     76.9949
  33       77.7777     77.7778
  34       79.0350     79.0349
  35       80.8475     80.8475
  36       81.2341     81.2341
 
  0.4000000E+00  0.5000000E-01  0.3885781E-15  0.3000000E-02
   1        0.8769      0.8769
   2        6.9440      6.9440
   3       17.8824     17.8824
   4       19.1947     19.1946
   5       19.2616     19.2616
   6       21.7858     21.7858
   7       23.2862     23.2862
   8       25.1024     25.1023
   9       29.5243     29.5243
  10       31.5441     31.5440
  11       37.5911     37.5911
  12       40.7514     40.7514
  13       42.1839     42.1840
  14       46.2809     46.2810
  15       46.5480     46.5480
  16       48.1076     48.1076
  17       48.7300     48.7301
  18       53.3410     53.3409
  19       57.5413     57.5411
  20       58.2227     58.2224
  21       59.1688     59.1688
  22       59.7901     59.7900
  23       60.8279     60.8280
  24       61.4550     61.4549
  25       64.3264     64.3265
  26       64.5146     64.5146
  27       65.2896     65.2895
  28       68.8773     68.8771
  29       69.9759     69.9758
  30       72.5678     72.5677
  31       72.6023     72.6022
  32       76.0158     76.0158
  33       76.9232     76.9232
  34       79.0272     79.0271
  35       80.7343     80.7343
  36       80.7647     80.7647
 
  0.4500000E+00  0.5000000E-01  0.3885781E-15  0.3000000E-02
   1        1.9535      1.9535
   2        5.4300      5.4300
   3       18.0619     18.0619
   4       18.6300     18.6300
   5       19.4068     19.4067
   6       21.1909     21.1909
   7       23.5177     23.5177
   8       24.4625     24.4624
   9       30.9832     30.9832
  10       32.6202     32.6201
  11       39.0446     39.0445
  12       39.4291     39.4291
  13       40.4815     40.4815
  14       46.7745     46.7745
  15       48.8319     48.8319
  16       49.2493     49.2493
  17       50.3629     50.3630
  18       55.3315     55.3313
  19       56.0463     56.0463
  20       57.2885     57.2884
  21       58.1669     58.1665
  22       58.4604     58.4604
  23       60.2397     60.2396
  24       60.6693     60.6692
  25       63.9155     63.9156
  26       63.9745     63.9743
  27       64.6149     64.6150
  28       65.8868     65.8867
  29       70.4455     70.4454
  30       72.0931     72.0931
  31       72.2949     72.2949
  32       75.3137     75.3136
  33       76.4719     76.4719
  34       79.1301     79.1300
  35       79.9919     79.9919
  36       80.7047     80.7047
 
  0.5000000E+00  0.5000000E-01  0.3330669E-15  0.3000000E-02
   1        3.1444      3.1443
   2        4.0401      4.0401
   3       18.1361     18.1361
   4       18.3568     18.3568
   5       19.7127     19.7127
   6       20.7076     20.7076
   7       23.8468     23.8468
   8       23.9398     23.9397
   9       32.2036     32.2035
  10       32.9040     32.9039
  11       38.9916     38.9917
  12       39.0705     39.0706
  13       39.9901     39.9901
  14       46.0726     46.0727
  15       50.7463     50.7464
  16       51.0864     51.0864
  17       51.6425     51.6425
  18       54.9561     54.9562
  19       55.4312     55.4312
  20       56.3756     56.3755
  21       57.3123     57.3117
  22       58.9344     58.9343
  23       60.1068     60.1067
  24       60.1972     60.1971
  25       62.0200     62.0199
  26       63.7825     63.7826
  27       64.8143     64.8144
  28       64.9522     64.9521
  29       70.7410     70.7409
  30       71.8745     71.8745
  31       72.0586     72.0585
  32       74.9635     74.9635
  33       76.3526     76.3526
  34       79.2349     79.2348
  35       79.5562     79.5562
  36       80.7137     80.7133
 
 -0.4500000E+00  0.5000000E-01  0.4163336E-15  0.3000000E-02
   1        2.7373      2.7373
   2        4.4869      4.4869
   3       17.7588     17.7588
   4       18.7674     18.7674
   5       20.1359     20.1359
   6       20.3379     20.3379
   7       23.4889     23.4889
   8       24.3284     24.3283
   9       32.1095     32.1095
  10       32.6509     32.6509
  11       38.6524     38.6524
  12       39.8173     39.8173
  13       39.8176     39.8176
  14       46.2187     46.2188
  15       49.9405     49.9405
  16       50.6541     50.6541
  17       51.7325     51.7325
  18       55.1514     55.1515
  19       55.8492     55.8492
  20       56.7025     56.7023
  21       57.2029     57.2026
  22       58.4853     58.4851
  23       60.3747     60.3746
  24       60.5670     60.5669
  25       62.5754     62.5753
  26       63.6389     63.6390
  27       64.8762     64.8762
  28       65.2127     65.2127
  29       70.6828     70.6827
  30       71.9434     71.9434
  31       72.0531     72.0531
  32       74.9882     74.9881
  33       76.4662     76.4662
  34       79.2612     79.2611
  35       79.5573     79.5573
  36       80.8279     80.8279
 
 -0.4000000E+00  0.5000000E-01  0.3885781E-15  0.3000000E-02
   1        1.5810      1.5810
   2        5.9217      5.9217
   3       17.4984     17.4984
   4       19.2914     19.2914
   5       20.0848     20.0848
   6       20.6723     20.6722
   7       23.1757     23.1757
   8       24.8958     24.8957
   9       30.7571     30.7570
  10       32.0134     32.0134
  11       38.6011     38.6011
  12       39.5858     39.5858
  13       41.3734     41.3734
  14       46.8883     46.8884
  15       47.8017     47.8018
  16       48.8215     48.8215
  17       49.9055     49.9056
  18       54.7072     54.7070
  19       56.7006     56.7007
  20       57.8018     57.8018
  21       58.2553     58.2548
  22       59.2837     59.2837
  23       60.8481     60.8480
  24       60.9659     60.9658
  25       63.3611     63.3611
  26       64.4974     64.4973
  27       65.0352     65.0352
  28       66.8693     66.8692
  29       70.2782     70.2781
  30       71.9929     71.9928
  31       72.6681     72.6681
  32       75.3122     75.3122
  33       76.7564     76.7564
  34       79.2678     79.2677
  35       80.0116     80.0116
  36       81.0694     81.0691
 
 -0.3500000E+00  0.5000000E-01  0.3885781E-15  0.3000000E-02
   1        0.5456      0.5456
   2        7.4735      7.4735
   3       17.3550     17.3550
   4       19.8567     19.8567
   5       20.0151     20.0151
   6       21.3177     21.3176
   7       22.9765     22.9765
   8       25.5593     25.5592
   9       29.2667     29.2666
  10       30.8043     30.8042
  11       37.0921     37.0920
  12       40.9607     40.9607
  13       43.0742     43.0743
  14       45.5241     45.5242
  15       45.6563     45.6563
  16       47.8312     47.8312
  17       48.9322     48.9322
  18       52.6188     52.6187
  19       58.0518     58.0513
  20       58.6531     58.6531
  21       59.3922     59.3922
  22       60.2004     60.2003
  23       61.7575     61.7575
  24       61.7637     61.7637
  25       63.1011     63.1012
  26       65.5538     65.5537
  27       65.7988     65.7987
  28       69.7199     69.7198
  29       70.1671     70.1669
  30       72.1918     72.1917
  31       73.5531     73.5531
  32       75.8674     75.8673
  33       77.1834     77.1834
  34       79.3869     79.3869
  35       80.7195     80.7195
  36       81.3687     81.4259
 
 -0.3000000E+00  0.5000000E-01  0.3885781E-15  0.3000000E-02
   1       -0.3639     -0.3639
   2        9.1356      9.1356
   3       17.3287     17.3287
   4       19.8903     19.8903
   5       20.7002     20.7001
   6       22.0634     22.0634
   7       22.8947     22.8947
   8       26.2889     26.2888
   9       27.7937     27.7937
  10       29.4743     29.4743
  11       35.3990     35.3990
  12       41.3045     41.3045
  13       43.0652     43.0652
  14       43.5667     43.5667
  15       45.0002     45.0003
  16       47.1894     47.1895
  17       48.9735     48.9735
  18       51.9063     51.9063
  19       57.9609     57.9604
  20       59.6798     59.6798
  21       60.0574     60.0573
  22       60.3267     60.3267
  23       62.2633     62.2634
  24       62.3531     62.3532
  25       64.6268     64.6267
  26       66.3922     66.3922
  27       67.6512     67.6512
  28       69.1338     69.1337
  29       72.5491     72.5490
  30       73.9887     73.9885
  31       74.5065     74.5065
  32       76.7072     76.7072
  33       77.8313     77.8313
  34       79.5490     79.5490
  35       80.6722     80.6722
  36       81.7873     81.7852
 
 -0.2500000E+00  0.5000000E-01  0.3885781E-15  0.3000000E-02
   1       -1.1449     -1.1449
   2       10.9018     10.9018
   3       17.4193     17.4193
   4       19.9699     19.9698
   5       21.5498     21.5497
   6       22.7820     22.7820
   7       23.0355     23.0355
   8       26.4073     26.4073