 vasp.6.4.1 05Apr23 (build Jan 11 2025 21:26:46) complex                         
 executed on             LinuxGNU date 2025.11.16  20:50:19
 running   64 mpi-ranks, with    1 threads/rank, on    1 nodes
 distrk:  each k-point on   64 cores,    1 groups
 distr:  one band on NCORE=  16 cores,    4 groups


--------------------------------------------------------------------------------------------------------


 INCAR:
   SYSTEM = Si_h.A4
   LPLANE = .TRUE.
   NPAR = 4
   NSIM = 4
   LSCALU = .FALSE.
   ISYM = 2
   ENMAX = 560
   LREAL = .FALSE.
   ISPIN = 1
   LWAVE = .FALSE.
   LCHARG = .TRUE.
   PREC = Accurate
   ENMAX = 532.2044
   EDIFF = 1E-8
   ALGO = Normal
   ISMEAR = 0
   SIGMA = 0.01
   NELM = 120
   NELMIN = 2
   LORBIT = 10
   LAECHG = .TRUE.
   EMIN = -30.0
   EMAX = 45.0
   LOPTICS = .true.
   CSHIFT = 0.1
   OMEGAMAX = 4
   NEDOS = 4000

 POTCAR:   PAW_PBE Si_h 08Apr2002                 
 POTCAR:   PAW_PBE Si_h 08Apr2002                 
   VRHFIN =Si: s2p2                                                                                 
   LEXCH  = PE                                                                                      
   EATOM  =   103.0669 eV,    7.5752 Ry                                                             
                                                                                                    
   TITEL  = PAW_PBE Si_h 08Apr2002                                                                  
   LULTRA =        F    use ultrasoft PP ?                                                          
   IUNSCR =        1    unscreen: 0-lin 1-nonlin 2-no                                               
   RPACOR =    1.300    partial core radius                                                         
   POMASS =   28.085; ZVAL   =    4.000    mass and valenz                                          
   RCORE  =    1.500    outmost cutoff radius                                                       
   RWIGS  =    1.800; RWIGS  =     .953    wigner-seitz radius (au A)                               
   ENMAX  =  380.146; ENMIN  =  285.109 eV                                                          
   ICORE  =        2    local potential                                                             
   LCOR   =        T    correct aug charges                                                         
   LPAW   =        T    paw PP                                                                      
   EAUG   =  472.845                                                                                
   DEXC   =    -.165                                                                                
   RMAX   =    2.365    core radius for proj-oper                                                   
   RAUG   =    1.300    factor for augmentation sphere                                              
   RDEP   =    1.543    radius for radial grids                                                     
   QCUT   =   -5.286; QGAM   =   10.572    optimization parameters                                  
                                                                                                    
   Description                                                                                      
     l     E      TYP  RCUT    TYP  RCUT                                                            
     0   .000     23  1.500                                                                         
     0   .000     23  1.500                                                                         
     1   .000     23  1.500                                                                         
     1   .000     23  1.500                                                                         
     2   .000     23  1.500                                                                         
  local pseudopotential read in
  partial core-charges read in
  atomic valenz-charges read in
  non local Contribution for L=            0  read in
    real space projection operators read in
  non local Contribution for L=            0  read in
    real space projection operators read in
  non local Contribution for L=            1  read in
    real space projection operators read in
  non local Contribution for L=            1  read in
    real space projection operators read in
    PAW grid and wavefunctions read in
 
   number of l-projection  operators is LMAX  =            4
   number of lm-projection operators is LMMAX =            8
 
 PAW_PBE Si_h 08Apr2002                 :
 energy of atom  1       EATOM= -103.0669
 kinetic energy error for atom=    0.0016 (will be added to EATOM!!)
 
 
 POSCAR: Si_hSi_h/301 - (A4) - A4 DIA [A] (301)
  positions in direct lattice
  velocities in cartesian coordinates
 exchange correlation table for  LEXCH =        8
   RHO(1)=    0.500       N(1)  =     2000
   RHO(2)=  100.500       N(2)  =     4000
 


--------------------------------------------------------------------------------------------------------


 ion  position               nearest neighbor table
   1  0.000  0.000  0.000-
   2  0.250  0.250  0.250-
 
  LATTYP: Found a face centered cubic cell.
 ALAT       =     5.4615731962
  
  Lattice vectors:
  
 A1 = (   0.0000000000,   2.7307865981,   2.7307865981)
 A2 = (   2.7307865981,   0.0000000000,   2.7307865981)
 A3 = (   2.7307865981,   2.7307865981,   0.0000000000)


Analysis of symmetry for initial positions (statically):
=====================================================================
 Subroutine PRICEL returns:
 Original cell was already a primitive cell.
 

 Routine SETGRP: Setting up the symmetry group for a 
 face centered cubic supercell.


 Subroutine GETGRP returns: Found 48 space group operations
 (whereof 24 operations were pure point group operations)
 out of a pool of 48 trial point group operations.


The static configuration has the point symmetry T_d .
 The point group associated with its full space group is O_h .


Analysis of symmetry for dynamics (positions and initial velocities):
=====================================================================
 Subroutine PRICEL returns:
 Original cell was already a primitive cell.
 

 Routine SETGRP: Setting up the symmetry group for a 
 face centered cubic supercell.


 Subroutine GETGRP returns: Found 48 space group operations
 (whereof 24 operations were pure point group operations)
 out of a pool of 48 trial point group operations.


The dynamic configuration has the point symmetry T_d .
 The point group associated with its full space group is O_h .


 Subroutine INISYM returns: Found 48 space group operations
 (whereof 24 operations are pure point group operations),
 and found     1 'primitive' translations


----------------------------------------------------------------------------------------

                                     Primitive cell                                     

  volume of cell :      40.7280

  direct lattice vectors                    reciprocal lattice vectors
     0.000000000  2.730786598  2.730786598    -0.183097427  0.183097427  0.183097427
     2.730786598  0.000000000  2.730786598     0.183097427 -0.183097427  0.183097427
     2.730786598  2.730786598  0.000000000     0.183097427  0.183097427 -0.183097427

  length of vectors
     3.861915443  3.861915443  3.861915443     0.317134046  0.317134046  0.317134046

  position of ions in fractional coordinates (direct lattice)
     0.000000000  0.000000000  0.000000000
     0.250000000  0.250000000  0.250000000

  ion indices of the primitive-cell ions
   primitive index   ion index
                 1           1
                 2           2

----------------------------------------------------------------------------------------

 
 
 KPOINTS: KPOINTS File, automatically generated by

Automatic generation of k-mesh.
 Grid dimensions read from file:
 generate k-points for:   26   26   26

 Generating k-lattice:

  Cartesian coordinates                     Fractional coordinates (reciprocal lattice)
    -0.007042209  0.007042209  0.007042209     0.038461538  0.000000000  0.000000000
     0.007042209 -0.007042209  0.007042209     0.000000000  0.038461538  0.000000000
     0.007042209  0.007042209 -0.007042209     0.000000000  0.000000000  0.038461538

  Length of vectors
     0.012197463  0.012197463  0.012197463

  Shift w.r.t. Gamma in fractional coordinates (k-lattice)
     0.500000000  0.500000000  0.500000000

 
 Subroutine IBZKPT returns following result:
 ===========================================
 
 Found   1638 irreducible k-points:
 
 Following reciprocal coordinates:
            Coordinates               Weight
  0.019231  0.019231  0.019231      8.000000
  0.057692  0.019231  0.019231     24.000000
  0.096154  0.019231  0.019231     24.000000
  0.134615  0.019231  0.019231     24.000000
  0.173077  0.019231  0.019231     24.000000
  0.211538  0.019231  0.019231     24.000000
  0.250000  0.019231  0.019231     24.000000
  0.288462  0.019231  0.019231     24.000000
  0.326923  0.019231  0.019231     24.000000
  0.365385  0.019231  0.019231     24.000000
  0.403846  0.019231  0.019231     24.000000
  0.442308  0.019231  0.019231     24.000000
  0.480769  0.019231  0.019231     24.000000
 -0.480769  0.019231  0.019231     24.000000
 -0.442308  0.019231  0.019231     24.000000
 -0.403846  0.019231  0.019231     24.000000
 -0.365385  0.019231  0.019231     24.000000
 -0.326923  0.019231  0.019231     24.000000
 -0.288462  0.019231  0.019231     24.000000
 -0.250000  0.019231  0.019231     24.000000
 -0.211538  0.019231  0.019231     24.000000
 -0.173077  0.019231  0.019231     24.000000
 -0.134615  0.019231  0.019231     24.000000
 -0.096154  0.019231  0.019231     24.000000
 -0.057692  0.019231  0.019231     24.000000
 -0.019231  0.019231  0.019231     24.000000
  0.057692  0.057692  0.019231     24.000000
  0.096154  0.057692  0.019231     48.000000
  0.134615  0.057692  0.019231     48.000000
  0.173077  0.057692  0.019231     48.000000
  0.211538  0.057692  0.019231     48.000000
  0.250000  0.057692  0.019231     48.000000
  0.288462  0.057692  0.019231     48.000000
  0.326923  0.057692  0.019231     48.000000
  0.365385  0.057692  0.019231     48.000000
  0.403846  0.057692  0.019231     48.000000
  0.442308  0.057692  0.019231     48.000000
  0.480769  0.057692  0.019231     48.000000
 -0.480769  0.057692  0.019231     48.000000
 -0.442308  0.057692  0.019231     48.000000
 -0.403846  0.057692  0.019231     48.000000
 -0.365385  0.057692  0.019231     48.000000
 -0.326923  0.057692  0.019231     48.000000
 -0.288462  0.057692  0.019231     48.000000
 -0.250000  0.057692  0.019231     48.000000
 -0.211538  0.057692  0.019231     48.000000
 -0.173077  0.057692  0.019231     48.000000
 -0.134615  0.057692  0.019231     48.000000
 -0.096154  0.057692  0.019231     48.000000
 -0.057692  0.057692  0.019231     48.000000
 -0.019231  0.057692  0.019231     48.000000
  0.096154  0.096154  0.019231     24.000000
  0.134615  0.096154  0.019231     48.000000
  0.173077  0.096154  0.019231     48.000000
  0.211538  0.096154  0.019231     48.000000
  0.250000  0.096154  0.019231     48.000000
  0.288462  0.096154  0.019231     48.000000
  0.326923  0.096154  0.019231     48.000000
  0.365385  0.096154  0.019231     48.000000
  0.403846  0.096154  0.019231     48.000000
  0.442308  0.096154  0.019231     48.000000
  0.480769  0.096154  0.019231     48.000000
 -0.480769  0.096154  0.019231     48.000000
 -0.442308  0.096154  0.019231     48.000000
 -0.403846  0.096154  0.019231     48.000000
 -0.365385  0.096154  0.019231     48.000000
 -0.326923  0.096154  0.019231     48.000000
 -0.288462  0.096154  0.019231     48.000000
 -0.250000  0.096154  0.019231     48.000000
 -0.211538  0.096154  0.019231     48.000000
 -0.173077  0.096154  0.019231     48.000000
 -0.134615  0.096154  0.019231     48.000000
 -0.096154  0.096154  0.019231     48.000000
 -0.057692  0.096154  0.019231     48.000000
 -0.019231  0.096154  0.019231     48.000000
  0.134615  0.134615  0.019231     24.000000
  0.173077  0.134615  0.019231     48.000000
  0.211538  0.134615  0.019231     48.000000
  0.250000  0.134615  0.019231     48.000000
  0.288462  0.134615  0.019231     48.000000
  0.326923  0.134615  0.019231     48.000000
  0.365385  0.134615  0.019231     48.000000
  0.403846  0.134615  0.019231     48.000000
  0.442308  0.134615  0.019231     48.000000
  0.480769  0.134615  0.019231     48.000000
 -0.480769  0.134615  0.019231     48.000000
 -0.442308  0.134615  0.019231     48.000000
 -0.403846  0.134615  0.019231     48.000000
 -0.365385  0.134615  0.019231     48.000000
 -0.326923  0.134615  0.019231     48.000000
 -0.288462  0.134615  0.019231     48.000000
 -0.250000  0.134615  0.019231     48.000000
 -0.211538  0.134615  0.019231     48.000000
 -0.173077  0.134615  0.019231     48.000000
 -0.134615  0.134615  0.019231     48.000000
 -0.096154  0.134615  0.019231     48.000000
 -0.057692  0.134615  0.019231     48.000000
 -0.019231  0.134615  0.019231     48.000000
  0.173077  0.173077  0.019231     24.000000
  0.211538  0.173077  0.019231     48.000000
  0.250000  0.173077  0.019231     48.000000
  0.288462  0.173077  0.019231     48.000000
  0.326923  0.173077  0.019231     48.000000
  0.365385  0.173077  0.019231     48.000000
  0.403846  0.173077  0.019231     48.000000
  0.442308  0.173077  0.019231     48.000000
  0.480769  0.173077  0.019231     48.000000
 -0.480769  0.173077  0.019231     48.000000
 -0.442308  0.173077  0.019231     48.000000
 -0.403846  0.173077  0.019231     48.000000
 -0.365385  0.173077  0.019231     48.000000
 -0.326923  0.173077  0.019231     48.000000
 -0.288462  0.173077  0.019231     48.000000
 -0.250000  0.173077  0.019231     48.000000
 -0.211538  0.173077  0.019231     48.000000
 -0.173077  0.173077  0.019231     48.000000
 -0.134615  0.173077  0.019231     48.000000
 -0.096154  0.173077  0.019231     48.000000
 -0.057692  0.173077  0.019231     48.000000
 -0.019231  0.173077  0.019231     48.000000
  0.211538  0.211538  0.019231     24.000000
  0.250000  0.211538  0.019231     48.000000
  0.288462  0.211538  0.019231     48.000000
  0.326923  0.211538  0.019231     48.000000
  0.365385  0.211538  0.019231     48.000000
  0.403846  0.211538  0.019231     48.000000
  0.442308  0.211538  0.019231     48.000000
  0.480769  0.211538  0.019231     48.000000
 -0.480769  0.211538  0.019231     48.000000
 -0.442308  0.211538  0.019231     48.000000
 -0.403846  0.211538  0.019231     48.000000
 -0.365385  0.211538  0.019231     48.000000
 -0.326923  0.211538  0.019231     48.000000
 -0.288462  0.211538  0.019231     48.000000
 -0.250000  0.211538  0.019231     48.000000
 -0.211538  0.211538  0.019231     48.000000
 -0.173077  0.211538  0.019231     48.000000
 -0.134615  0.211538  0.019231     48.000000
 -0.096154  0.211538  0.019231     48.000000
 -0.057692  0.211538  0.019231     48.000000
 -0.019231  0.211538  0.019231     48.000000
  0.250000  0.250000  0.019231     24.000000
  0.288462  0.250000  0.019231     48.000000
  0.326923  0.250000  0.019231     48.000000
  0.365385  0.250000  0.019231     48.000000
  0.403846  0.250000  0.019231     48.000000
  0.442308  0.250000  0.019231     48.000000
  0.480769  0.250000  0.019231     48.000000
 -0.480769  0.250000  0.019231     48.000000
 -0.442308  0.250000  0.019231     48.000000
 -0.403846  0.250000  0.019231     48.000000
 -0.365385  0.250000  0.019231     48.000000
 -0.326923  0.250000  0.019231     48.000000
 -0.288462  0.250000  0.019231     48.000000
 -0.250000  0.250000  0.019231     48.000000
 -0.211538  0.250000  0.019231     48.000000
 -0.173077  0.250000  0.019231     48.000000
 -0.134615  0.250000  0.019231     48.000000
 -0.096154  0.250000  0.019231     48.000000
 -0.057692  0.250000  0.019231     48.000000
 -0.019231  0.250000  0.019231     48.000000
  0.288462  0.288462  0.019231     24.000000
  0.326923  0.288462  0.019231     48.000000
  0.365385  0.288462  0.019231     48.000000
  0.403846  0.288462  0.019231     48.000000
  0.442308  0.288462  0.019231     48.000000
  0.480769  0.288462  0.019231     48.000000
 -0.480769  0.288462  0.019231     48.000000
 -0.442308  0.288462  0.019231     48.000000
 -0.403846  0.288462  0.019231     48.000000
 -0.365385  0.288462  0.019231     48.000000
 -0.326923  0.288462  0.019231     48.000000
 -0.288462  0.288462  0.019231     48.000000
 -0.250000  0.288462  0.019231     48.000000
 -0.211538  0.288462  0.019231     48.000000
 -0.173077  0.288462  0.019231     48.000000
 -0.134615  0.288462  0.019231     48.000000
 -0.096154  0.288462  0.019231     48.000000
 -0.057692  0.288462  0.019231     48.000000
 -0.019231  0.288462  0.019231     48.000000
  0.326923  0.326923  0.019231     24.000000
  0.365385  0.326923  0.019231     48.000000
  0.403846  0.326923  0.019231     48.000000
  0.442308  0.326923  0.019231     48.000000
  0.480769  0.326923  0.019231     48.000000
 -0.480769  0.326923  0.019231     48.000000
 -0.442308  0.326923  0.019231     48.000000
 -0.403846  0.326923  0.019231     48.000000
 -0.365385  0.326923  0.019231     48.000000
 -0.326923  0.326923  0.019231     48.000000
 -0.288462  0.326923  0.019231     48.000000
 -0.250000  0.326923  0.019231     48.000000
 -0.211538  0.326923  0.019231     48.000000
 -0.173077  0.326923  0.019231     48.000000
 -0.134615  0.326923  0.019231     48.000000
 -0.096154  0.326923  0.019231     48.000000
 -0.057692  0.326923  0.019231     48.000000
 -0.019231  0.326923  0.019231     48.000000
  0.365385  0.365385  0.019231     24.000000
  0.403846  0.365385  0.019231     48.000000
  0.442308  0.365385  0.019231     48.000000
  0.480769  0.365385  0.019231     48.000000
 -0.480769  0.365385  0.019231     48.000000
 -0.442308  0.365385  0.019231     48.000000
 -0.403846  0.365385  0.019231     48.000000
 -0.365385  0.365385  0.019231     48.000000
 -0.326923  0.365385  0.019231     48.000000
 -0.288462  0.365385  0.019231     48.000000
 -0.250000  0.365385  0.019231     48.000000
 -0.211538  0.365385  0.019231     48.000000
 -0.173077  0.365385  0.019231     48.000000
 -0.134615  0.365385  0.019231     48.000000
 -0.096154  0.365385  0.019231     48.000000
 -0.057692  0.365385  0.019231     48.000000
 -0.019231  0.365385  0.019231     48.000000
  0.403846  0.403846  0.019231     24.000000
  0.442308  0.403846  0.019231     48.000000
  0.480769  0.403846  0.019231     48.000000
 -0.480769  0.403846  0.019231     48.000000
 -0.442308  0.403846  0.019231     48.000000
 -0.403846  0.403846  0.019231     48.000000
 -0.365385  0.403846  0.019231     48.000000
 -0.326923  0.403846  0.019231     48.000000
 -0.288462  0.403846  0.019231     48.000000
 -0.250000  0.403846  0.019231     48.000000
 -0.211538  0.403846  0.019231     48.000000
 -0.173077  0.403846  0.019231     48.000000
 -0.134615  0.403846  0.019231     48.000000
 -0.096154  0.403846  0.019231     48.000000
 -0.057692  0.403846  0.019231     48.000000
 -0.019231  0.403846  0.019231     48.000000
  0.442308  0.442308  0.019231     24.000000
  0.480769  0.442308  0.019231     48.000000
 -0.480769  0.442308  0.019231     48.000000
 -0.442308  0.442308  0.019231     48.000000
 -0.403846  0.442308  0.019231     48.000000
 -0.365385  0.442308  0.019231     48.000000
 -0.326923  0.442308  0.019231     48.000000
 -0.288462  0.442308  0.019231     48.000000
 -0.250000  0.442308  0.019231     48.000000
 -0.211538  0.442308  0.019231     48.000000
 -0.173077  0.442308  0.019231     48.000000
 -0.134615  0.442308  0.019231     48.000000
 -0.096154  0.442308  0.019231     48.000000
 -0.057692  0.442308  0.019231     48.000000
 -0.019231  0.442308  0.019231     48.000000
  0.480769  0.480769  0.019231     24.000000
 -0.480769  0.480769  0.019231     48.000000
 -0.442308  0.480769  0.019231     48.000000
 -0.403846  0.480769  0.019231     48.000000
 -0.365385  0.480769  0.019231     48.000000
 -0.326923  0.480769  0.019231     48.000000
 -0.288462  0.480769  0.019231     48.000000
 -0.250000  0.480769  0.019231     48.000000
 -0.211538  0.480769  0.019231     48.000000
 -0.173077  0.480769  0.019231     48.000000
 -0.134615  0.480769  0.019231     48.000000
 -0.096154  0.480769  0.019231     48.000000
 -0.057692  0.480769  0.019231     48.000000
 -0.019231  0.480769  0.019231     48.000000
 -0.480769 -0.480769  0.019231     24.000000
 -0.442308 -0.480769  0.019231     48.000000
 -0.403846 -0.480769  0.019231     48.000000
 -0.365385 -0.480769  0.019231     48.000000
 -0.326923 -0.480769  0.019231     48.000000
 -0.288462 -0.480769  0.019231     48.000000
 -0.250000 -0.480769  0.019231     48.000000
 -0.211538 -0.480769  0.019231     48.000000
 -0.173077 -0.480769  0.019231     48.000000
 -0.134615 -0.480769  0.019231     48.000000
 -0.096154 -0.480769  0.019231     48.000000
 -0.057692 -0.480769  0.019231     48.000000
 -0.442308 -0.442308  0.019231     24.000000
 -0.403846 -0.442308  0.019231     48.000000
 -0.365385 -0.442308  0.019231     48.000000
 -0.326923 -0.442308  0.019231     48.000000
 -0.288462 -0.442308  0.019231     48.000000
 -0.250000 -0.442308  0.019231     48.000000
 -0.211538 -0.442308  0.019231     48.000000
 -0.173077 -0.442308  0.019231     48.000000
 -0.134615 -0.442308  0.019231     48.000000
 -0.096154 -0.442308  0.019231     48.000000
 -0.057692 -0.442308  0.019231     48.000000
 -0.403846 -0.403846  0.019231     24.000000
 -0.365385 -0.403846  0.019231     48.000000
 -0.326923 -0.403846  0.019231     48.000000
 -0.288462 -0.403846  0.019231     48.000000
 -0.250000 -0.403846  0.019231     48.000000
 -0.211538 -0.403846  0.019231     48.000000
 -0.173077 -0.403846  0.019231     48.000000
 -0.134615 -0.403846  0.019231     48.000000
 -0.096154 -0.403846  0.019231     48.000000
 -0.057692 -0.403846  0.019231     48.000000
 -0.365385 -0.365385  0.019231     24.000000
 -0.326923 -0.365385  0.019231     48.000000
 -0.288462 -0.365385  0.019231     48.000000
 -0.250000 -0.365385  0.019231     48.000000
 -0.211538 -0.365385  0.019231     48.000000
 -0.173077 -0.365385  0.019231     48.000000
 -0.134615 -0.365385  0.019231     48.000000
 -0.096154 -0.365385  0.019231     48.000000
 -0.057692 -0.365385  0.019231     48.000000
 -0.326923 -0.326923  0.019231     24.000000
 -0.288462 -0.326923  0.019231     48.000000
 -0.250000 -0.326923  0.019231     48.000000
 -0.211538 -0.326923  0.019231     48.000000
 -0.173077 -0.326923  0.019231     48.000000
 -0.134615 -0.326923  0.019231     48.000000
 -0.096154 -0.326923  0.019231     48.000000
 -0.057692 -0.326923  0.019231     48.000000
 -0.288462 -0.288462  0.019231     24.000000
 -0.250000 -0.288462  0.019231     48.000000
 -0.211538 -0.288462  0.019231     48.000000
 -0.173077 -0.288462  0.019231     48.000000
 -0.134615 -0.288462  0.019231     48.000000
 -0.096154 -0.288462  0.019231     48.000000
 -0.057692 -0.288462  0.019231     48.000000
 -0.250000 -0.250000  0.019231     24.000000
 -0.211538 -0.250000  0.019231     48.000000
 -0.173077 -0.250000  0.019231     48.000000
 -0.134615 -0.250000  0.019231     48.000000
 -0.096154 -0.250000  0.019231     48.000000
 -0.057692 -0.250000  0.019231     48.000000
 -0.211538 -0.211538  0.019231     24.000000
 -0.173077 -0.211538  0.019231     48.000000
 -0.134615 -0.211538  0.019231     48.000000
 -0.096154 -0.211538  0.019231     48.000000
 -0.057692 -0.211538  0.019231     48.000000
 -0.173077 -0.173077  0.019231     24.000000
 -0.134615 -0.173077  0.019231     48.000000
 -0.096154 -0.173077  0.019231     48.000000
 -0.057692 -0.173077  0.019231     48.000000
 -0.134615 -0.134615  0.019231     24.000000
 -0.096154 -0.134615  0.019231     48.000000
 -0.057692 -0.134615  0.019231     48.000000
 -0.096154 -0.096154  0.019231     24.000000
 -0.057692 -0.096154  0.019231     48.000000
 -0.057692 -0.057692  0.019231     24.000000
  0.057692  0.057692  0.057692      8.000000
  0.096154  0.057692  0.057692     24.000000
  0.134615  0.057692  0.057692     24.000000
  0.173077  0.057692  0.057692     24.000000
  0.211538  0.057692  0.057692     24.000000
  0.250000  0.057692  0.057692     24.000000
  0.288462  0.057692  0.057692     24.000000
  0.326923  0.057692  0.057692     24.000000
  0.365385  0.057692  0.057692     24.000000
  0.403846  0.057692  0.057692     24.000000
  0.442308  0.057692  0.057692     24.000000
  0.480769  0.057692  0.057692     24.000000
 -0.480769  0.057692  0.057692     24.000000
 -0.442308  0.057692  0.057692     24.000000
 -0.403846  0.057692  0.057692     24.000000
 -0.365385  0.057692  0.057692     24.000000
 -0.326923  0.057692  0.057692     24.000000
 -0.288462  0.057692  0.057692     24.000000
 -0.250000  0.057692  0.057692     24.000000
 -0.211538  0.057692  0.057692     24.000000
 -0.173077  0.057692  0.057692     24.000000
 -0.134615  0.057692  0.057692     24.000000
 -0.096154  0.057692  0.057692     24.000000
 -0.057692  0.057692  0.057692     24.000000
  0.096154  0.096154  0.057692     24.000000
  0.134615  0.096154  0.057692     48.000000
  0.173077  0.096154  0.057692     48.000000
  0.211538  0.096154  0.057692     48.000000
  0.250000  0.096154  0.057692     48.000000
  0.288462  0.096154  0.057692     48.000000
  0.326923  0.096154  0.057692     48.000000
  0.365385  0.096154  0.057692     48.000000
  0.403846  0.096154  0.057692     48.000000
  0.442308  0.096154  0.057692     48.000000
  0.480769  0.096154  0.057692     48.000000
 -0.480769  0.096154  0.057692     48.000000
 -0.442308  0.096154  0.057692     48.000000
 -0.403846  0.096154  0.057692     48.000000
 -0.365385  0.096154  0.057692     48.000000
 -0.326923  0.096154  0.057692     48.000000
 -0.288462  0.096154  0.057692     48.000000
 -0.250000  0.096154  0.057692     48.000000
 -0.211538  0.096154  0.057692     48.000000
 -0.173077  0.096154  0.057692     48.000000
 -0.134615  0.096154  0.057692     48.000000
 -0.096154  0.096154  0.057692     48.000000
 -0.057692  0.096154  0.057692     48.000000
  0.134615  0.134615  0.057692     24.000000
  0.173077  0.134615  0.057692     48.000000
  0.211538  0.134615  0.057692     48.000000
  0.250000  0.134615  0.057692     48.000000
  0.288462  0.134615  0.057692     48.000000
  0.326923  0.134615  0.057692     48.000000
  0.365385  0.134615  0.057692     48.000000
  0.403846  0.134615  0.057692     48.000000
  0.442308  0.134615  0.057692     48.000000
  0.480769  0.134615  0.057692     48.000000
 -0.480769  0.134615  0.057692     48.000000
 -0.442308  0.134615  0.057692     48.000000
 -0.403846  0.134615  0.057692     48.000000
 -0.365385  0.134615  0.057692     48.000000
 -0.326923  0.134615  0.057692     48.000000
 -0.288462  0.134615  0.057692     48.000000
 -0.250000  0.134615  0.057692     48.000000
 -0.211538  0.134615  0.057692     48.000000
 -0.173077  0.134615  0.057692     48.000000
 -0.134615  0.134615  0.057692     48.000000
 -0.096154  0.134615  0.057692     48.000000
 -0.057692  0.134615  0.057692     48.000000
  0.173077  0.173077  0.057692     24.000000
  0.211538  0.173077  0.057692     48.000000
  0.250000  0.173077  0.057692     48.000000
  0.288462  0.173077  0.057692     48.000000
  0.326923  0.173077  0.057692     48.000000
  0.365385  0.173077  0.057692     48.000000
  0.403846  0.173077  0.057692     48.000000
  0.442308  0.173077  0.057692     48.000000
  0.480769  0.173077  0.057692     48.000000
 -0.480769  0.173077  0.057692     48.000000
 -0.442308  0.173077  0.057692     48.000000
 -0.403846  0.173077  0.057692     48.000000
 -0.365385  0.173077  0.057692     48.000000
 -0.326923  0.173077  0.057692     48.000000
 -0.288462  0.173077  0.057692     48.000000
 -0.250000  0.173077  0.057692     48.000000
 -0.211538  0.173077  0.057692     48.000000
 -0.173077  0.173077  0.057692     48.000000
 -0.134615  0.173077  0.057692     48.000000
 -0.096154  0.173077  0.057692     48.000000
 -0.057692  0.173077  0.057692     48.000000
  0.211538  0.211538  0.057692     24.000000
  0.250000  0.211538  0.057692     48.000000
  0.288462  0.211538  0.057692     48.000000
  0.326923  0.211538  0.057692     48.000000
  0.365385  0.211538  0.057692     48.000000
  0.403846  0.211538  0.057692     48.000000
  0.442308  0.211538  0.057692     48.000000
  0.480769  0.211538  0.057692     48.000000
 -0.480769  0.211538  0.057692     48.000000
 -0.442308  0.211538  0.057692     48.000000
 -0.403846  0.211538  0.057692     48.000000
 -0.365385  0.211538  0.057692     48.000000
 -0.326923  0.211538  0.057692     48.000000
 -0.288462  0.211538  0.057692     48.000000
 -0.250000  0.211538  0.057692     48.000000
 -0.211538  0.211538  0.057692     48.000000
 -0.173077  0.211538  0.057692     48.000000
 -0.134615  0.211538  0.057692     48.000000
 -0.096154  0.211538  0.057692     48.000000
 -0.057692  0.211538  0.057692     48.000000
  0.250000  0.250000  0.057692     24.000000
  0.288462  0.250000  0.057692     48.000000
  0.326923  0.250000  0.057692     48.000000
  0.365385  0.250000  0.057692     48.000000
  0.403846  0.250000  0.057692     48.000000
  0.442308  0.250000  0.057692     48.000000
  0.480769  0.250000  0.057692     48.000000
 -0.480769  0.250000  0.057692     48.000000
 -0.442308  0.250000  0.057692     48.000000
 -0.403846  0.250000  0.057692     48.000000
 -0.365385  0.250000  0.057692     48.000000
 -0.326923  0.250000  0.057692     48.000000
 -0.288462  0.250000  0.057692     48.000000
 -0.250000  0.250000  0.057692     48.000000
 -0.211538  0.250000  0.057692     48.000000
 -0.173077  0.250000  0.057692     48.000000
 -0.134615  0.250000  0.057692     48.000000
 -0.096154  0.250000  0.057692     48.000000
 -0.057692  0.250000  0.057692     48.000000
  0.288462  0.288462  0.057692     24.000000
  0.326923  0.288462  0.057692     48.000000
  0.365385  0.288462  0.057692     48.000000
  0.403846  0.288462  0.057692     48.000000
  0.442308  0.288462  0.057692     48.000000
  0.480769  0.288462  0.057692     48.000000
 -0.480769  0.288462  0.057692     48.000000
 -0.442308  0.288462  0.057692     48.000000
 -0.403846  0.288462  0.057692     48.000000
 -0.365385  0.288462  0.057692     48.000000
 -0.326923  0.288462  0.057692     48.000000
 -0.288462  0.288462  0.057692     48.000000
 -0.250000  0.288462  0.057692     48.000000
 -0.211538  0.288462  0.057692     48.000000
 -0.173077  0.288462  0.057692     48.000000
 -0.134615  0.288462  0.057692     48.000000
 -0.096154  0.288462  0.057692     48.000000
 -0.057692  0.288462  0.057692     48.000000
  0.326923  0.326923  0.057692     24.000000
  0.365385  0.326923  0.057692     48.000000
  0.403846  0.326923  0.057692     48.000000
  0.442308  0.326923  0.057692     48.000000
  0.480769  0.326923  0.057692     48.000000
 -0.480769  0.326923  0.057692     48.000000
 -0.442308  0.326923  0.057692     48.000000
 -0.403846  0.326923  0.057692     48.000000
 -0.365385  0.326923  0.057692     48.000000
 -0.326923  0.326923  0.057692     48.000000
 -0.288462  0.326923  0.057692     48.000000
 -0.250000  0.326923  0.057692     48.000000
 -0.211538  0.326923  0.057692     48.000000
 -0.173077  0.326923  0.057692     48.000000
 -0.134615  0.326923  0.057692     48.000000
 -0.096154  0.326923  0.057692     48.000000
 -0.057692  0.326923  0.057692     48.000000
  0.365385  0.365385  0.057692     24.000000
  0.403846  0.365385  0.057692     48.000000
  0.442308  0.365385  0.057692     48.000000
  0.480769  0.365385  0.057692     48.000000
 -0.480769  0.365385  0.057692     48.000000
 -0.442308  0.365385  0.057692     48.000000
 -0.403846  0.365385  0.057692     48.000000
 -0.365385  0.365385  0.057692     48.000000
 -0.326923  0.365385  0.057692     48.000000
 -0.288462  0.365385  0.057692     48.000000
 -0.250000  0.365385  0.057692     48.000000
 -0.211538  0.365385  0.057692     48.000000
 -0.173077  0.365385  0.057692     48.000000
 -0.134615  0.365385  0.057692     48.000000
 -0.096154  0.365385  0.057692     48.000000
 -0.057692  0.365385  0.057692     48.000000
  0.403846  0.403846  0.057692     24.000000
  0.442308  0.403846  0.057692     48.000000
  0.480769  0.403846  0.057692     48.000000
 -0.480769  0.403846  0.057692     48.000000
 -0.442308  0.403846  0.057692     48.000000
 -0.403846  0.403846  0.057692     48.000000
 -0.365385  0.403846  0.057692     48.000000
 -0.326923  0.403846  0.057692     48.000000
 -0.288462  0.403846  0.057692     48.000000
 -0.250000  0.403846  0.057692     48.000000
 -0.211538  0.403846  0.057692     48.000000
 -0.173077  0.403846  0.057692     48.000000
 -0.134615  0.403846  0.057692     48.000000
 -0.096154  0.403846  0.057692     48.000000
 -0.057692  0.403846  0.057692     48.000000
  0.442308  0.442308  0.057692     24.000000
  0.480769  0.442308  0.057692     48.000000
 -0.480769  0.442308  0.057692     48.000000
 -0.442308  0.442308  0.057692     48.000000
 -0.403846  0.442308  0.057692     48.000000
 -0.365385  0.442308  0.057692     48.000000
 -0.326923  0.442308  0.057692     48.000000
 -0.288462  0.442308  0.057692     48.000000
 -0.250000  0.442308  0.057692     48.000000
 -0.211538  0.442308  0.057692     48.000000
 -0.173077  0.442308  0.057692     48.000000
 -0.134615  0.442308  0.057692     48.000000
 -0.096154  0.442308  0.057692     48.000000
 -0.057692  0.442308  0.057692     48.000000
  0.480769  0.480769  0.057692     24.000000
 -0.480769  0.480769  0.057692     48.000000
 -0.442308  0.480769  0.057692     48.000000
 -0.403846  0.480769  0.057692     48.000000
 -0.365385  0.480769  0.057692     48.000000
 -0.326923  0.480769  0.057692     48.000000
 -0.288462  0.480769  0.057692     48.000000
 -0.250000  0.480769  0.057692     48.000000
 -0.211538  0.480769  0.057692     48.000000
 -0.173077  0.480769  0.057692     48.000000
 -0.134615  0.480769  0.057692     48.000000
 -0.096154  0.480769  0.057692     48.000000
 -0.057692  0.480769  0.057692     48.000000
 -0.480769 -0.480769  0.057692     24.000000
 -0.442308 -0.480769  0.057692     48.000000
 -0.403846 -0.480769  0.057692     48.000000
 -0.365385 -0.480769  0.057692     48.000000
 -0.326923 -0.480769  0.057692     48.000000
 -0.288462 -0.480769  0.057692     48.000000
 -0.250000 -0.480769  0.057692     48.000000
 -0.211538 -0.480769  0.057692     48.000000
 -0.173077 -0.480769  0.057692     48.000000
 -0.134615 -0.480769  0.057692     48.000000
 -0.096154 -0.480769  0.057692     48.000000
 -0.442308 -0.442308  0.057692     24.000000
 -0.403846 -0.442308  0.057692     48.000000
 -0.365385 -0.442308  0.057692     48.000000
 -0.326923 -0.442308  0.057692     48.000000
 -0.288462 -0.442308  0.057692     48.000000
 -0.250000 -0.442308  0.057692     48.000000
 -0.211538 -0.442308  0.057692     48.000000
 -0.173077 -0.442308  0.057692     48.000000
 -0.134615 -0.442308  0.057692     48.000000
 -0.096154 -0.442308  0.057692     48.000000
 -0.403846 -0.403846  0.057692     24.000000
 -0.365385 -0.403846  0.057692     48.000000
 -0.326923 -0.403846  0.057692     48.000000
 -0.288462 -0.403846  0.057692     48.000000
 -0.250000 -0.403846  0.057692     48.000000
 -0.211538 -0.403846  0.057692     48.000000
 -0.173077 -0.403846  0.057692     48.000000
 -0.134615 -0.403846  0.057692     48.000000
 -0.096154 -0.403846  0.057692     48.000000
 -0.365385 -0.365385  0.057692     24.000000
 -0.326923 -0.365385  0.057692     48.000000
 -0.288462 -0.365385  0.057692     48.000000
 -0.250000 -0.365385  0.057692     48.000000
 -0.211538 -0.365385  0.057692     48.000000
 -0.173077 -0.365385  0.057692     48.000000
 -0.134615 -0.365385  0.057692     48.000000
 -0.096154 -0.365385  0.057692     48.000000
 -0.326923 -0.326923  0.057692     24.000000
 -0.288462 -0.326923  0.057692     48.000000
 -0.250000 -0.326923  0.057692     48.000000
 -0.211538 -0.326923  0.057692     48.000000
 -0.173077 -0.326923  0.057692     48.000000
 -0.134615 -0.326923  0.057692     48.000000
 -0.096154 -0.326923  0.057692     48.000000
 -0.288462 -0.288462  0.057692     24.000000
 -0.250000 -0.288462  0.057692     48.000000
 -0.211538 -0.288462  0.057692     48.000000
 -0.173077 -0.288462  0.057692     48.000000
 -0.134615 -0.288462  0.057692     48.000000
 -0.096154 -0.288462  0.057692     48.000000
 -0.250000 -0.250000  0.057692     24.000000
 -0.211538 -0.250000  0.057692     48.000000
 -0.173077 -0.250000  0.057692     48.000000
 -0.134615 -0.250000  0.057692     48.000000
 -0.096154 -0.250000  0.057692     48.000000
 -0.211538 -0.211538  0.057692     24.000000
 -0.173077 -0.211538  0.057692     48.000000
 -0.134615 -0.211538  0.057692     48.000000
 -0.096154 -0.211538  0.057692     48.000000
 -0.173077 -0.173077  0.057692     24.000000
 -0.134615 -0.173077  0.057692     48.000000
 -0.096154 -0.173077  0.057692     48.000000
 -0.134615 -0.134615  0.057692     24.000000
 -0.096154 -0.134615  0.057692     48.000000
 -0.096154 -0.096154  0.057692     24.000000
  0.096154  0.096154  0.096154      8.000000
  0.134615  0.096154  0.096154     24.000000
  0.173077  0.096154  0.096154     24.000000
  0.211538  0.096154  0.096154     24.000000
  0.250000  0.096154  0.096154     24.000000
  0.288462  0.096154  0.096154     24.000000
  0.326923  0.096154  0.096154     24.000000
  0.365385  0.096154  0.096154     24.000000
  0.403846  0.096154  0.096154     24.000000
  0.442308  0.096154  0.096154     24.000000
  0.480769  0.096154  0.096154     24.000000
 -0.480769  0.096154  0.096154     24.000000
 -0.442308  0.096154  0.096154     24.000000
 -0.403846  0.096154  0.096154     24.000000
 -0.365385  0.096154  0.096154     24.000000
 -0.326923  0.096154  0.096154     24.000000
 -0.288462  0.096154  0.096154     24.000000
 -0.250000  0.096154  0.096154     24.000000
 -0.211538  0.096154  0.096154     24.000000
 -0.173077  0.096154  0.096154     24.000000
 -0.134615  0.096154  0.096154     24.000000
 -0.096154  0.096154  0.096154     24.000000
  0.134615  0.134615  0.096154     24.000000
  0.173077  0.134615  0.096154     48.000000
  0.211538  0.134615  0.096154     48.000000
  0.250000  0.134615  0.096154     48.000000
  0.288462  0.134615  0.096154     48.000000
  0.326923  0.134615  0.096154     48.000000
  0.365385  0.134615  0.096154     48.000000
  0.403846  0.134615  0.096154     48.000000
  0.442308  0.134615  0.096154     48.000000
  0.480769  0.134615  0.096154     48.000000
 -0.480769  0.134615  0.096154     48.000000
 -0.442308  0.134615  0.096154     48.000000
 -0.403846  0.134615  0.096154     48.000000
 -0.365385  0.134615  0.096154     48.000000
 -0.326923  0.134615  0.096154     48.000000
 -0.288462  0.134615  0.096154     48.000000
 -0.250000  0.134615  0.096154     48.000000
 -0.211538  0.134615  0.096154     48.000000
 -0.173077  0.134615  0.096154     48.000000
 -0.134615  0.134615  0.096154     48.000000
 -0.096154  0.134615  0.096154     48.000000
  0.173077  0.173077  0.096154     24.000000
  0.211538  0.173077  0.096154     48.000000
  0.250000  0.173077  0.096154     48.000000
  0.288462  0.173077  0.096154     48.000000
  0.326923  0.173077  0.096154     48.000000
  0.365385  0.173077  0.096154     48.000000
  0.403846  0.173077  0.096154     48.000000
  0.442308  0.173077  0.096154     48.000000
  0.480769  0.173077  0.096154     48.000000
 -0.480769  0.173077  0.096154     48.000000
 -0.442308  0.173077  0.096154     48.000000
 -0.403846  0.173077  0.096154     48.000000
 -0.365385  0.173077  0.096154     48.000000
 -0.326923  0.173077  0.096154     48.000000
 -0.288462  0.173077  0.096154     48.000000
 -0.250000  0.173077  0.096154     48.000000
 -0.211538  0.173077  0.096154     48.000000
 -0.173077  0.173077  0.096154     48.000000
 -0.134615  0.173077  0.096154     48.000000
 -0.096154  0.173077  0.096154     48.000000
  0.211538  0.211538  0.096154     24.000000
  0.250000  0.211538  0.096154     48.000000
  0.288462  0.211538  0.096154     48.000000
  0.326923  0.211538  0.096154     48.000000
  0.365385  0.211538  0.096154     48.000000
  0.403846  0.211538  0.096154     48.000000
  0.442308  0.211538  0.096154     48.000000
  0.480769  0.211538  0.096154     48.000000
 -0.480769  0.211538  0.096154     48.000000
 -0.442308  0.211538  0.096154     48.000000
 -0.403846  0.211538  0.096154     48.000000
 -0.365385  0.211538  0.096154     48.000000
 -0.326923  0.211538  0.096154     48.000000
 -0.288462  0.211538  0.096154     48.000000
 -0.250000  0.211538  0.096154     48.000000
 -0.211538  0.211538  0.096154     48.000000
 -0.173077  0.211538  0.096154     48.000000
 -0.134615  0.211538  0.096154     48.000000
 -0.096154  0.211538  0.096154     48.000000
  0.250000  0.250000  0.096154     24.000000
  0.288462  0.250000  0.096154     48.000000
  0.326923  0.250000  0.096154     48.000000
  0.365385  0.250000  0.096154     48.000000
  0.403846  0.250000  0.096154     48.000000
  0.442308  0.250000  0.096154     48.000000
  0.480769  0.250000  0.096154     48.000000
 -0.480769  0.250000  0.096154     48.000000
 -0.442308  0.250000  0.096154     48.000000
 -0.403846  0.250000  0.096154     48.000000
 -0.365385  0.250000  0.096154     48.000000
 -0.326923  0.250000  0.096154     48.000000
 -0.288462  0.250000  0.096154     48.000000
 -0.250000  0.250000  0.096154     48.000000
 -0.211538  0.250000  0.096154     48.000000
 -0.173077  0.250000  0.096154     48.000000
 -0.134615  0.250000  0.096154     48.000000
 -0.096154  0.250000  0.096154     48.000000
  0.288462  0.288462  0.096154     24.000000
  0.326923  0.288462  0.096154     48.000000
  0.365385  0.288462  0.096154     48.000000
  0.403846  0.288462  0.096154     48.000000
  0.442308  0.288462  0.096154     48.000000
  0.480769  0.288462  0.096154     48.000000
 -0.480769  0.288462  0.096154     48.000000
 -0.442308  0.288462  0.096154     48.000000
 -0.403846  0.288462  0.096154     48.000000
 -0.365385  0.288462  0.096154     48.000000
 -0.326923  0.288462  0.096154     48.000000
 -0.288462  0.288462  0.096154     48.000000
 -0.250000  0.288462  0.096154     48.000000
 -0.211538  0.288462  0.096154     48.000000
 -0.173077  0.288462  0.096154     48.000000
 -0.134615  0.288462  0.096154     48.000000
 -0.096154  0.288462  0.096154     48.000000
  0.326923  0.326923  0.096154     24.000000
  0.365385  0.326923  0.096154     48.000000
  0.403846  0.326923  0.096154     48.000000
  0.442308  0.326923  0.096154     48.000000
  0.480769  0.326923  0.096154     48.000000
 -0.480769  0.326923  0.096154     48.000000
 -0.442308  0.326923  0.096154     48.000000
 -0.403846  0.326923  0.096154     48.000000
 -0.365385  0.326923  0.096154     48.000000
 -0.326923  0.326923  0.096154     48.000000
 -0.288462  0.326923  0.096154     48.000000
 -0.250000  0.326923  0.096154     48.000000
 -0.211538  0.326923  0.096154     48.000000
 -0.173077  0.326923  0.096154     48.000000
 -0.134615  0.326923  0.096154     48.000000
 -0.096154  0.326923  0.096154     48.000000
  0.365385  0.365385  0.096154     24.000000
  0.403846  0.365385  0.096154     48.000000
  0.442308  0.365385  0.096154     48.000000
  0.480769  0.365385  0.096154     48.000000
 -0.480769  0.365385  0.096154     48.000000
 -0.442308  0.365385  0.096154     48.000000
 -0.403846  0.365385  0.096154     48.000000
 -0.365385  0.365385  0.096154     48.000000
 -0.326923  0.365385  0.096154     48.000000
 -0.288462  0.365385  0.096154     48.000000
 -0.250000  0.365385  0.096154     48.000000
 -0.211538  0.365385  0.096154     48.000000
 -0.173077  0.365385  0.096154     48.000000
 -0.134615  0.365385  0.096154     48.000000
 -0.096154  0.365385  0.096154     48.000000
  0.403846  0.403846  0.096154     24.000000
  0.442308  0.403846  0.096154     48.000000
  0.480769  0.403846  0.096154     48.000000
 -0.480769  0.403846  0.096154     48.000000
 -0.442308  0.403846  0.096154     48.000000
 -0.403846  0.403846  0.096154     48.000000
 -0.365385  0.403846  0.096154     48.000000
 -0.326923  0.403846  0.096154     48.000000
 -0.288462  0.403846  0.096154     48.000000
 -0.250000  0.403846  0.096154     48.000000
 -0.211538  0.403846  0.096154     48.000000
 -0.173077  0.403846  0.096154     48.000000
 -0.134615  0.403846  0.096154     48.000000
 -0.096154  0.403846  0.096154     48.000000
  0.442308  0.442308  0.096154     24.000000
  0.480769  0.442308  0.096154     48.000000
 -0.480769  0.442308  0.096154     48.000000
 -0.442308  0.442308  0.096154     48.000000
 -0.403846  0.442308  0.096154     48.000000
 -0.365385  0.442308  0.096154     48.000000
 -0.326923  0.442308  0.096154     48.000000
 -0.288462  0.442308  0.096154     48.000000
 -0.250000  0.442308  0.096154     48.000000
 -0.211538  0.442308  0.096154     48.000000
 -0.173077  0.442308  0.096154     48.000000
 -0.134615  0.442308  0.096154     48.000000
 -0.096154  0.442308  0.096154     48.000000
  0.480769  0.480769  0.096154     24.000000
 -0.480769  0.480769  0.096154     48.000000
 -0.442308  0.480769  0.096154     48.000000
 -0.403846  0.480769  0.096154     48.000000
 -0.365385  0.480769  0.096154     48.000000
 -0.326923  0.480769  0.096154     48.000000
 -0.288462  0.480769  0.096154     48.000000
 -0.250000  0.480769  0.096154     48.000000
 -0.211538  0.480769  0.096154     48.000000
 -0.173077  0.480769  0.096154     48.000000
 -0.134615  0.480769  0.096154     48.000000
 -0.096154  0.480769  0.096154     48.000000
 -0.480769 -0.480769  0.096154     24.000000
 -0.442308 -0.480769  0.096154     48.000000
 -0.403846 -0.480769  0.096154     48.000000
 -0.365385 -0.480769  0.096154     48.000000
 -0.326923 -0.480769  0.096154     48.000000
 -0.288462 -0.480769  0.096154     48.000000
 -0.250000 -0.480769  0.096154     48.000000
 -0.211538 -0.480769  0.096154     48.000000
 -0.173077 -0.480769  0.096154     48.000000
 -0.134615 -0.480769  0.096154     48.000000
 -0.442308 -0.442308  0.096154     24.000000
 -0.403846 -0.442308  0.096154     48.000000
 -0.365385 -0.442308  0.096154     48.000000
 -0.326923 -0.442308  0.096154     48.000000
 -0.288462 -0.442308  0.096154     48.000000
 -0.250000 -0.442308  0.096154     48.000000
 -0.211538 -0.442308  0.096154     48.000000
 -0.173077 -0.442308  0.096154     48.000000
 -0.134615 -0.442308  0.096154     48.000000
 -0.403846 -0.403846  0.096154     24.000000
 -0.365385 -0.403846  0.096154     48.000000
 -0.326923 -0.403846  0.096154     48.000000
 -0.288462 -0.403846  0.096154     48.000000
 -0.250000 -0.403846  0.096154     48.000000
 -0.211538 -0.403846  0.096154     48.000000
 -0.173077 -0.403846  0.096154     48.000000
 -0.134615 -0.403846  0.096154     48.000000
 -0.365385 -0.365385  0.096154     24.000000
 -0.326923 -0.365385  0.096154     48.000000
 -0.288462 -0.365385  0.096154     48.000000
 -0.250000 -0.365385  0.096154     48.000000
 -0.211538 -0.365385  0.096154     48.000000
 -0.173077 -0.365385  0.096154     48.000000
 -0.134615 -0.365385  0.096154     48.000000
 -0.326923 -0.326923  0.096154     24.000000
 -0.288462 -0.326923  0.096154     48.000000
 -0.250000 -0.326923  0.096154     48.000000
 -0.211538 -0.326923  0.096154     48.000000
 -0.173077 -0.326923  0.096154     48.000000
 -0.134615 -0.326923  0.096154     48.000000
 -0.288462 -0.288462  0.096154     24.000000
 -0.250000 -0.288462  0.096154     48.000000
 -0.211538 -0.288462  0.096154     48.000000
 -0.173077 -0.288462  0.096154     48.000000
 -0.134615 -0.288462  0.096154     48.000000
 -0.250000 -0.250000  0.096154     24.000000
 -0.211538 -0.250000  0.096154     48.000000
 -0.173077 -0.250000  0.096154     48.000000
 -0.134615 -0.250000  0.096154     48.000000
 -0.211538 -0.211538  0.096154     24.000000
 -0.173077 -0.211538  0.096154     48.000000
 -0.134615 -0.211538  0.096154     48.000000
 -0.173077 -0.173077  0.096154     24.000000
 -0.134615 -0.173077  0.096154     48.000000
 -0.134615 -0.134615  0.096154     24.000000
  0.134615  0.134615  0.134615      8.000000
  0.173077  0.134615  0.134615     24.000000
  0.211538  0.134615  0.134615     24.000000
  0.250000  0.134615  0.134615     24.000000
  0.288462  0.134615  0.134615     24.000000
  0.326923  0.134615  0.134615     24.000000
  0.365385  0.134615  0.134615     24.000000
  0.403846  0.134615  0.134615     24.000000
  0.442308  0.134615  0.134615     24.000000
  0.480769  0.134615  0.134615     24.000000
 -0.480769  0.134615  0.134615     24.000000
 -0.442308  0.134615  0.134615     24.000000
 -0.403846  0.134615  0.134615     24.000000
 -0.365385  0.134615  0.134615     24.000000
 -0.326923  0.134615  0.134615     24.000000
 -0.288462  0.134615  0.134615     24.000000
 -0.250000  0.134615  0.134615     24.000000
 -0.211538  0.134615  0.134615     24.000000
 -0.173077  0.134615  0.134615     24.000000
 -0.134615  0.134615  0.134615     24.000000
  0.173077  0.173077  0.134615     24.000000
  0.211538  0.173077  0.134615     48.000000
  0.250000  0.173077  0.134615     48.000000
  0.288462  0.173077  0.134615     48.000000
  0.326923  0.173077  0.134615     48.000000
  0.365385  0.173077  0.134615     48.000000
  0.403846  0.173077  0.134615     48.000000
  0.442308  0.173077  0.134615     48.000000
  0.480769  0.173077  0.134615     48.000000
 -0.480769  0.173077  0.134615     48.000000
 -0.442308  0.173077  0.134615     48.000000
 -0.403846  0.173077  0.134615     48.000000
 -0.365385  0.173077  0.134615     48.000000
 -0.326923  0.173077  0.134615     48.000000
 -0.288462  0.173077  0.134615     48.000000
 -0.250000  0.173077  0.134615     48.000000
 -0.211538  0.173077  0.134615     48.000000
 -0.173077  0.173077  0.134615     48.000000
 -0.134615  0.173077  0.134615     48.000000
  0.211538  0.211538  0.134615     24.000000
  0.250000  0.211538  0.134615     48.000000
  0.288462  0.211538  0.134615     48.000000
  0.326923  0.211538  0.134615     48.000000
  0.365385  0.211538  0.134615     48.000000
  0.403846  0.211538  0.134615     48.000000
  0.442308  0.211538  0.134615     48.000000
  0.480769  0.211538  0.134615     48.000000
 -0.480769  0.211538  0.134615     48.000000
 -0.442308  0.211538  0.134615     48.000000
 -0.403846  0.211538  0.134615     48.000000
 -0.365385  0.211538  0.134615     48.000000
 -0.326923  0.211538  0.134615     48.000000
 -0.288462  0.211538  0.134615     48.000000
 -0.250000  0.211538  0.134615     48.000000
 -0.211538  0.211538  0.134615     48.000000
 -0.173077  0.211538  0.134615     48.000000
 -0.134615  0.211538  0.134615     48.000000
  0.250000  0.250000  0.134615     24.000000
  0.288462  0.250000  0.134615     48.000000
  0.326923  0.250000  0.134615     48.000000
  0.365385  0.250000  0.134615     48.000000
  0.403846  0.250000  0.134615     48.000000
  0.442308  0.250000  0.134615     48.000000
  0.480769  0.250000  0.134615     48.000000
 -0.480769  0.250000  0.134615     48.000000
 -0.442308  0.250000  0.134615     48.000000
 -0.403846  0.250000  0.134615     48.000000
 -0.365385  0.250000  0.134615     48.000000
 -0.326923  0.250000  0.134615     48.000000
 -0.288462  0.250000  0.134615     48.000000
 -0.250000  0.250000  0.134615     48.000000
 -0.211538  0.250000  0.134615     48.000000
 -0.173077  0.250000  0.134615     48.000000
 -0.134615  0.250000  0.134615     48.000000
  0.288462  0.288462  0.134615     24.000000
  0.326923  0.288462  0.134615     48.000000
  0.365385  0.288462  0.134615     48.000000
  0.403846  0.288462  0.134615     48.000000
  0.442308  0.288462  0.134615     48.000000
  0.480769  0.288462  0.134615     48.000000
 -0.480769  0.288462  0.134615     48.000000
 -0.442308  0.288462  0.134615     48.000000
 -0.403846  0.288462  0.134615     48.000000
 -0.365385  0.288462  0.134615     48.000000
 -0.326923  0.288462  0.134615     48.000000
 -0.288462  0.288462  0.134615     48.000000
 -0.250000  0.288462  0.134615     48.000000
 -0.211538  0.288462  0.134615     48.000000
 -0.173077  0.288462  0.134615     48.000000
 -0.134615  0.288462  0.134615     48.000000
  0.326923  0.326923  0.134615     24.000000
  0.365385  0.326923  0.134615     48.000000
  0.403846  0.326923  0.134615     48.000000
  0.442308  0.326923  0.134615     48.000000
  0.480769  0.326923  0.134615     48.000000
 -0.480769  0.326923  0.134615     48.000000
 -0.442308  0.326923  0.134615     48.000000
 -0.403846  0.326923  0.134615     48.000000
 -0.365385  0.326923  0.134615     48.000000
 -0.326923  0.326923  0.134615     48.000000
 -0.288462  0.326923  0.134615     48.000000
 -0.250000  0.326923  0.134615     48.000000
 -0.211538  0.326923  0.134615     48.000000
 -0.173077  0.326923  0.134615     48.000000
 -0.134615  0.326923  0.134615     48.000000
  0.365385  0.365385  0.134615     24.000000
  0.403846  0.365385  0.134615     48.000000
  0.442308  0.365385  0.134615     48.000000
  0.480769  0.365385  0.134615     48.000000
 -0.480769  0.365385  0.134615     48.000000
 -0.442308  0.365385  0.134615     48.000000
 -0.403846  0.365385  0.134615     48.000000
 -0.365385  0.365385  0.134615     48.000000
 -0.326923  0.365385  0.134615     48.000000
 -0.288462  0.365385  0.134615     48.000000
 -0.250000  0.365385  0.134615     48.000000
 -0.211538  0.365385  0.134615     48.000000
 -0.173077  0.365385  0.134615     48.000000
 -0.134615  0.365385  0.134615     48.000000
  0.403846  0.403846  0.134615     24.000000
  0.442308  0.403846  0.134615     48.000000
  0.480769  0.403846  0.134615     48.000000
 -0.480769  0.403846  0.134615     48.000000
 -0.442308  0.403846  0.134615     48.000000
 -0.403846  0.403846  0.134615     48.000000
 -0.365385  0.403846  0.134615     48.000000
 -0.326923  0.403846  0.134615     48.000000
 -0.288462  0.403846  0.134615     48.000000
 -0.250000  0.403846  0.134615     48.000000
 -0.211538  0.403846  0.134615     48.000000
 -0.173077  0.403846  0.134615     48.000000
 -0.134615  0.403846  0.134615     48.000000
  0.442308  0.442308  0.134615     24.000000
  0.480769  0.442308  0.134615     48.000000
 -0.480769  0.442308  0.134615     48.000000
 -0.442308  0.442308  0.134615     48.000000
 -0.403846  0.442308  0.134615     48.000000
 -0.365385  0.442308  0.134615     48.000000
 -0.326923  0.442308  0.134615     48.000000
 -0.288462  0.442308  0.134615     48.000000
 -0.250000  0.442308  0.134615     48.000000
 -0.211538  0.442308  0.134615     48.000000
 -0.173077  0.442308  0.134615     48.000000
 -0.134615  0.442308  0.134615     48.000000
  0.480769  0.480769  0.134615     24.000000
 -0.480769  0.480769  0.134615     48.000000
 -0.442308  0.480769  0.134615     48.000000
 -0.403846  0.480769  0.134615     48.000000
 -0.365385  0.480769  0.134615     48.000000
 -0.326923  0.480769  0.134615     48.000000
 -0.288462  0.480769  0.134615     48.000000
 -0.250000  0.480769  0.134615     48.000000
 -0.211538  0.480769  0.134615     48.000000
 -0.173077  0.480769  0.134615     48.000000
 -0.134615  0.480769  0.134615     48.000000
 -0.480769 -0.480769  0.134615     24.000000
 -0.442308 -0.480769  0.134615     48.000000
 -0.403846 -0.480769  0.134615     48.000000
 -0.365385 -0.480769  0.134615     48.000000
 -0.326923 -0.480769  0.134615     48.000000
 -0.288462 -0.480769  0.134615     48.000000
 -0.250000 -0.480769  0.134615     48.000000
 -0.211538 -0.480769  0.134615     48.000000
 -0.173077 -0.480769  0.134615     48.000000
 -0.442308 -0.442308  0.134615     24.000000
 -0.403846 -0.442308  0.134615     48.000000
 -0.365385 -0.442308  0.134615     48.000000
 -0.326923 -0.442308  0.134615     48.000000
 -0.288462 -0.442308  0.134615     48.000000
 -0.250000 -0.442308  0.134615     48.000000
 -0.211538 -0.442308  0.134615     48.000000
 -0.173077 -0.442308  0.134615     48.000000
 -0.403846 -0.403846  0.134615     24.000000
 -0.365385 -0.403846  0.134615     48.000000
 -0.326923 -0.403846  0.134615     48.000000
 -0.288462 -0.403846  0.134615     48.000000
 -0.250000 -0.403846  0.134615     48.000000
 -0.211538 -0.403846  0.134615     48.000000
 -0.173077 -0.403846  0.134615     48.000000
 -0.365385 -0.365385  0.134615     24.000000
 -0.326923 -0.365385  0.134615     48.000000
 -0.288462 -0.365385  0.134615     48.000000
 -0.250000 -0.365385  0.134615     48.000000
 -0.211538 -0.365385  0.134615     48.000000
 -0.173077 -0.365385  0.134615     48.000000
 -0.326923 -0.326923  0.134615     24.000000
 -0.288462 -0.326923  0.134615     48.000000
 -0.250000 -0.326923  0.134615     48.000000
 -0.211538 -0.326923  0.134615     48.000000
 -0.173077 -0.326923  0.134615     48.000000
 -0.288462 -0.288462  0.134615     24.000000
 -0.250000 -0.288462  0.134615     48.000000
 -0.211538 -0.288462  0.134615     48.000000
 -0.173077 -0.288462  0.134615     48.000000
 -0.250000 -0.250000  0.134615     24.000000
 -0.211538 -0.250000  0.134615     48.000000
 -0.173077 -0.250000  0.134615     48.000000
 -0.211538 -0.211538  0.134615     24.000000
 -0.173077 -0.211538  0.134615     48.000000
 -0.173077 -0.173077  0.134615     24.000000
  0.173077  0.173077  0.173077      8.000000
  0.211538  0.173077  0.173077     24.000000
  0.250000  0.173077  0.173077     24.000000
  0.288462  0.173077  0.173077     24.000000
  0.326923  0.173077  0.173077     24.000000
  0.365385  0.173077  0.173077     24.000000
  0.403846  0.173077  0.173077     24.000000
  0.442308  0.173077  0.173077     24.000000
  0.480769  0.173077  0.173077     24.000000
 -0.480769  0.173077  0.173077     24.000000
 -0.442308  0.173077  0.173077     24.000000
 -0.403846  0.173077  0.173077     24.000000
 -0.365385  0.173077  0.173077     24.000000
 -0.326923  0.173077  0.173077     24.000000
 -0.288462  0.173077  0.173077     24.000000
 -0.250000  0.173077  0.173077     24.000000
 -0.211538  0.173077  0.173077     24.000000
 -0.173077  0.173077  0.173077     24.000000
  0.211538  0.211538  0.173077     24.000000
  0.250000  0.211538  0.173077     48.000000
  0.288462  0.211538  0.173077     48.000000
  0.326923  0.211538  0.173077     48.000000
  0.365385  0.211538  0.173077     48.000000
  0.403846  0.211538  0.173077     48.000000
  0.442308  0.211538  0.173077     48.000000
  0.480769  0.211538  0.173077     48.000000
 -0.480769  0.211538  0.173077     48.000000
 -0.442308  0.211538  0.173077     48.000000
 -0.403846  0.211538  0.173077     48.000000
 -0.365385  0.211538  0.173077     48.000000
 -0.326923  0.211538  0.173077     48.000000
 -0.288462  0.211538  0.173077     48.000000
 -0.250000  0.211538  0.173077     48.000000
 -0.211538  0.211538  0.173077     48.000000
 -0.173077  0.211538  0.173077     48.000000
  0.250000  0.250000  0.173077     24.000000
  0.288462  0.250000  0.173077     48.000000
  0.326923  0.250000  0.173077     48.000000
  0.365385  0.250000  0.173077     48.000000
  0.403846  0.250000  0.173077     48.000000
  0.442308  0.250000  0.173077     48.000000
  0.480769  0.250000  0.173077     48.000000
 -0.480769  0.250000  0.173077     48.000000
 -0.442308  0.250000  0.173077     48.000000
 -0.403846  0.250000  0.173077     48.000000
 -0.365385  0.250000  0.173077     48.000000
 -0.326923  0.250000  0.173077     48.000000
 -0.288462  0.250000  0.173077     48.000000
 -0.250000  0.250000  0.173077     48.000000
 -0.211538  0.250000  0.173077     48.000000
 -0.173077  0.250000  0.173077     48.000000
  0.288462  0.288462  0.173077     24.000000
  0.326923  0.288462  0.173077     48.000000
  0.365385  0.288462  0.173077     48.000000
  0.403846  0.288462  0.173077     48.000000
  0.442308  0.288462  0.173077     48.000000
  0.480769  0.288462  0.173077     48.000000
 -0.480769  0.288462  0.173077     48.000000
 -0.442308  0.288462  0.173077     48.000000
 -0.403846  0.288462  0.173077     48.000000
 -0.365385  0.288462  0.173077     48.000000
 -0.326923  0.288462  0.173077     48.000000
 -0.288462  0.288462  0.173077     48.000000
 -0.250000  0.288462  0.173077     48.000000
 -0.211538  0.288462  0.173077     48.000000
 -0.173077  0.288462  0.173077     48.000000
  0.326923  0.326923  0.173077     24.000000
  0.365385  0.326923  0.173077     48.000000
  0.403846  0.326923  0.173077     48.000000
  0.442308  0.326923  0.173077     48.000000
  0.480769  0.326923  0.173077     48.000000
 -0.480769  0.326923  0.173077     48.000000
 -0.442308  0.326923  0.173077     48.000000
 -0.403846  0.326923  0.173077     48.000000
 -0.365385  0.326923  0.173077     48.000000
 -0.326923  0.326923  0.173077     48.000000
 -0.288462  0.326923  0.173077     48.000000
 -0.250000  0.326923  0.173077     48.000000
 -0.211538  0.326923  0.173077     48.000000
 -0.173077  0.326923  0.173077     48.000000
  0.365385  0.365385  0.173077     24.000000
  0.403846  0.365385  0.173077     48.000000
  0.442308  0.365385  0.173077     48.000000
  0.480769  0.365385  0.173077     48.000000
 -0.480769  0.365385  0.173077     48.000000
 -0.442308  0.365385  0.173077     48.000000
 -0.403846  0.365385  0.173077     48.000000
 -0.365385  0.365385  0.173077     48.000000
 -0.326923  0.365385  0.173077     48.000000
 -0.288462  0.365385  0.173077     48.000000
 -0.250000  0.365385  0.173077     48.000000
 -0.211538  0.365385  0.173077     48.000000
 -0.173077  0.365385  0.173077     48.000000
  0.403846  0.403846  0.173077     24.000000
  0.442308  0.403846  0.173077     48.000000
  0.480769  0.403846  0.173077     48.000000
 -0.480769  0.403846  0.173077     48.000000
 -0.442308  0.403846  0.173077     48.000000
 -0.403846  0.403846  0.173077     48.000000
 -0.365385  0.403846  0.173077     48.000000
 -0.326923  0.403846  0.173077     48.000000
 -0.288462  0.403846  0.173077     48.000000
 -0.250000  0.403846  0.173077     48.000000
 -0.211538  0.403846  0.173077     48.000000
 -0.173077  0.403846  0.173077     48.000000
  0.442308  0.442308  0.173077     24.000000
  0.480769  0.442308  0.173077     48.000000
 -0.480769  0.442308  0.173077     48.000000
 -0.442308  0.442308  0.173077     48.000000
 -0.403846  0.442308  0.173077     48.000000
 -0.365385  0.442308  0.173077     48.000000
 -0.326923  0.442308  0.173077     48.000000
 -0.288462  0.442308  0.173077     48.000000
 -0.250000  0.442308  0.173077     48.000000
 -0.211538  0.442308  0.173077     48.000000
 -0.173077  0.442308  0.173077     48.000000
  0.480769  0.480769  0.173077     24.000000
 -0.480769  0.480769  0.173077     48.000000
 -0.442308  0.480769  0.173077     48.000000
 -0.403846  0.480769  0.173077     48.000000
 -0.365385  0.480769  0.173077     48.000000
 -0.326923  0.480769  0.173077     48.000000
 -0.288462  0.480769  0.173077     48.000000
 -0.250000  0.480769  0.173077     48.000000
 -0.211538  0.480769  0.173077     48.000000
 -0.173077  0.480769  0.173077     48.000000
 -0.480769 -0.480769  0.173077     24.000000
 -0.442308 -0.480769  0.173077     48.000000
 -0.403846 -0.480769  0.173077     48.000000
 -0.365385 -0.480769  0.173077     48.000000
 -0.326923 -0.480769  0.173077     48.000000
 -0.288462 -0.480769  0.173077     48.000000
 -0.250000 -0.480769  0.173077     48.000000
 -0.211538 -0.480769  0.173077     48.000000
 -0.442308 -0.442308  0.173077     24.000000
 -0.403846 -0.442308  0.173077     48.000000
 -0.365385 -0.442308  0.173077     48.000000
 -0.326923 -0.442308  0.173077     48.000000
 -0.288462 -0.442308  0.173077     48.000000
 -0.250000 -0.442308  0.173077     48.000000
 -0.211538 -0.442308  0.173077     48.000000
 -0.403846 -0.403846  0.173077     24.000000
 -0.365385 -0.403846  0.173077     48.000000
 -0.326923 -0.403846  0.173077     48.000000
 -0.288462 -0.403846  0.173077     48.000000
 -0.250000 -0.403846  0.173077     48.000000
 -0.211538 -0.403846  0.173077     48.000000
 -0.365385 -0.365385  0.173077     24.000000
 -0.326923 -0.365385  0.173077     48.000000
 -0.288462 -0.365385  0.173077     48.000000
 -0.250000 -0.365385  0.173077     48.000000
 -0.211538 -0.365385  0.173077     48.000000
 -0.326923 -0.326923  0.173077     24.000000
 -0.288462 -0.326923  0.173077     48.000000
 -0.250000 -0.326923  0.173077     48.000000
 -0.211538 -0.326923  0.173077     48.000000
 -0.288462 -0.288462  0.173077     24.000000
 -0.250000 -0.288462  0.173077     48.000000
 -0.211538 -0.288462  0.173077     48.000000
 -0.250000 -0.250000  0.173077     24.000000
 -0.211538 -0.250000  0.173077     48.000000
 -0.211538 -0.211538  0.173077     24.000000
  0.211538  0.211538  0.211538      8.000000
  0.250000  0.211538  0.211538     24.000000
  0.288462  0.211538  0.211538     24.000000
  0.326923  0.211538  0.211538     24.000000
  0.365385  0.211538  0.211538     24.000000
  0.403846  0.211538  0.211538     24.000000
  0.442308  0.211538  0.211538     24.000000
  0.480769  0.211538  0.211538     24.000000
 -0.480769  0.211538  0.211538     24.000000
 -0.442308  0.211538  0.211538     24.000000
 -0.403846  0.211538  0.211538     24.000000
 -0.365385  0.211538  0.211538     24.000000
 -0.326923  0.211538  0.211538     24.000000
 -0.288462  0.211538  0.211538     24.000000
 -0.250000  0.211538  0.211538     24.000000
 -0.211538  0.211538  0.211538     24.000000
  0.250000  0.250000  0.211538     24.000000
  0.288462  0.250000  0.211538     48.000000
  0.326923  0.250000  0.211538     48.000000
  0.365385  0.250000  0.211538     48.000000
  0.403846  0.250000  0.211538     48.000000
  0.442308  0.250000  0.211538     48.000000
  0.480769  0.250000  0.211538     48.000000
 -0.480769  0.250000  0.211538     48.000000
 -0.442308  0.250000  0.211538     48.000000
 -0.403846  0.250000  0.211538     48.000000
 -0.365385  0.250000  0.211538     48.000000
 -0.326923  0.250000  0.211538     48.000000
 -0.288462  0.250000  0.211538     48.000000
 -0.250000  0.250000  0.211538     48.000000
 -0.211538  0.250000  0.211538     48.000000
  0.288462  0.288462  0.211538     24.000000
  0.326923  0.288462  0.211538     48.000000
  0.365385  0.288462  0.211538     48.000000
  0.403846  0.288462  0.211538     48.000000
  0.442308  0.288462  0.211538     48.000000
  0.480769  0.288462  0.211538     48.000000
 -0.480769  0.288462  0.211538     48.000000
 -0.442308  0.288462  0.211538     48.000000
 -0.403846  0.288462  0.211538     48.000000
 -0.365385  0.288462  0.211538     48.000000
 -0.326923  0.288462  0.211538     48.000000
 -0.288462  0.288462  0.211538     48.000000
 -0.250000  0.288462  0.211538     48.000000
 -0.211538  0.288462  0.211538     48.000000
  0.326923  0.326923  0.211538     24.000000
  0.365385  0.326923  0.211538     48.000000
  0.403846  0.326923  0.211538     48.000000
  0.442308  0.326923  0.211538     48.000000
  0.480769  0.326923  0.211538     48.000000
 -0.480769  0.326923  0.211538     48.000000
 -0.442308  0.326923  0.211538     48.000000
 -0.403846  0.326923  0.211538     48.000000
 -0.365385  0.326923  0.211538     48.000000
 -0.326923  0.326923  0.211538     48.000000
 -0.288462  0.326923  0.211538     48.000000
 -0.250000  0.326923  0.211538     48.000000
 -0.211538  0.326923  0.211538     48.000000
  0.365385  0.365385  0.211538     24.000000
  0.403846  0.365385  0.211538     48.000000
  0.442308  0.365385  0.211538     48.000000
  0.480769  0.365385  0.211538     48.000000
 -0.480769  0.365385  0.211538     48.000000
 -0.442308  0.365385  0.211538     48.000000
 -0.403846  0.365385  0.211538     48.000000
 -0.365385  0.365385  0.211538     48.000000
 -0.326923  0.365385  0.211538     48.000000
 -0.288462  0.365385  0.211538     48.000000
 -0.250000  0.365385  0.211538     48.000000
 -0.211538  0.365385  0.211538     48.000000
  0.403846  0.403846  0.211538     24.000000
  0.442308  0.403846  0.211538     48.000000
  0.480769  0.403846  0.211538     48.000000
 -0.480769  0.403846  0.211538     48.000000
 -0.442308  0.403846  0.211538     48.000000
 -0.403846  0.403846  0.211538     48.000000
 -0.365385  0.403846  0.211538     48.000000
 -0.326923  0.403846  0.211538     48.000000
 -0.288462  0.403846  0.211538     48.000000
 -0.250000  0.403846  0.211538     48.000000
 -0.211538  0.403846  0.211538     48.000000
  0.442308  0.442308  0.211538     24.000000
  0.480769  0.442308  0.211538     48.000000
 -0.480769  0.442308  0.211538     48.000000
 -0.442308  0.442308  0.211538     48.000000
 -0.403846  0.442308  0.211538     48.000000
 -0.365385  0.442308  0.211538     48.000000
 -0.326923  0.442308  0.211538     48.000000
 -0.288462  0.442308  0.211538     48.000000
 -0.250000  0.442308  0.211538     48.000000
 -0.211538  0.442308  0.211538     48.000000
  0.480769  0.480769  0.211538     24.000000
 -0.480769  0.480769  0.211538     48.000000
 -0.442308  0.480769  0.211538     48.000000
 -0.403846  0.480769  0.211538     48.000000
 -0.365385  0.480769  0.211538     48.000000
 -0.326923  0.480769  0.211538     48.000000
 -0.288462  0.480769  0.211538     48.000000
 -0.250000  0.480769  0.211538     48.000000
 -0.211538  0.480769  0.211538     48.000000
 -0.480769 -0.480769  0.211538     24.000000
 -0.442308 -0.480769  0.211538     48.000000
 -0.403846 -0.480769  0.211538     48.000000
 -0.365385 -0.480769  0.211538     48.000000
 -0.326923 -0.480769  0.211538     48.000000
 -0.288462 -0.480769  0.211538     48.000000
 -0.250000 -0.480769  0.211538     48.000000
 -0.442308 -0.442308  0.211538     24.000000
 -0.403846 -0.442308  0.211538     48.000000
 -0.365385 -0.442308  0.211538     48.000000
 -0.326923 -0.442308  0.211538     48.000000
 -0.288462 -0.442308  0.211538     48.000000
 -0.250000 -0.442308  0.211538     48.000000
 -0.403846 -0.403846  0.211538     24.000000
 -0.365385 -0.403846  0.211538     48.000000
 -0.326923 -0.403846  0.211538     48.000000
 -0.288462 -0.403846  0.211538     48.000000
 -0.250000 -0.403846  0.211538     48.000000
 -0.365385 -0.365385  0.211538     24.000000
 -0.326923 -0.365385  0.211538     48.000000
 -0.288462 -0.365385  0.211538     48.000000
 -0.250000 -0.365385  0.211538     48.000000
 -0.326923 -0.326923  0.211538     24.000000
 -0.288462 -0.326923  0.211538     48.000000
 -0.250000 -0.326923  0.211538     48.000000
 -0.288462 -0.288462  0.211538     24.000000
 -0.250000 -0.288462  0.211538     48.000000
 -0.250000 -0.250000  0.211538     24.000000
  0.250000  0.250000  0.250000      8.000000
  0.288462  0.250000  0.250000     24.000000
  0.326923  0.250000  0.250000     24.000000
  0.365385  0.250000  0.250000     24.000000
  0.403846  0.250000  0.250000     24.000000
  0.442308  0.250000  0.250000     24.000000
  0.480769  0.250000  0.250000     24.000000
 -0.480769  0.250000  0.250000     24.000000
 -0.442308  0.250000  0.250000     24.000000
 -0.403846  0.250000  0.250000     24.000000
 -0.365385  0.250000  0.250000     24.000000
 -0.326923  0.250000  0.250000     24.000000
 -0.288462  0.250000  0.250000     24.000000
 -0.250000  0.250000  0.250000     24.000000
  0.288462  0.288462  0.250000     24.000000
  0.326923  0.288462  0.250000     48.000000
  0.365385  0.288462  0.250000     48.000000
  0.403846  0.288462  0.250000     48.000000
  0.442308  0.288462  0.250000     48.000000
  0.480769  0.288462  0.250000     48.000000
 -0.480769  0.288462  0.250000     48.000000
 -0.442308  0.288462  0.250000     48.000000
 -0.403846  0.288462  0.250000     48.000000
 -0.365385  0.288462  0.250000     48.000000
 -0.326923  0.288462  0.250000     48.000000
 -0.288462  0.288462  0.250000     48.000000
 -0.250000  0.288462  0.250000     48.000000
  0.326923  0.326923  0.250000     24.000000
  0.365385  0.326923  0.250000     48.000000
  0.403846  0.326923  0.250000     48.000000
  0.442308  0.326923  0.250000     48.000000
  0.480769  0.326923  0.250000     48.000000
 -0.480769  0.326923  0.250000     48.000000
 -0.442308  0.326923  0.250000     48.000000
 -0.403846  0.326923  0.250000     48.000000
 -0.365385  0.326923  0.250000     48.000000
 -0.326923  0.326923  0.250000     48.000000
 -0.288462  0.326923  0.250000     48.000000
 -0.250000  0.326923  0.250000     48.000000
  0.365385  0.365385  0.250000     24.000000
  0.403846  0.365385  0.250000     48.000000
  0.442308  0.365385  0.250000     48.000000
  0.480769  0.365385  0.250000     48.000000
 -0.480769  0.365385  0.250000     48.000000
 -0.442308  0.365385  0.250000     48.000000
 -0.403846  0.365385  0.250000     48.000000
 -0.365385  0.365385  0.250000     48.000000
 -0.326923  0.365385  0.250000     48.000000
 -0.288462  0.365385  0.250000     48.000000
 -0.250000  0.365385  0.250000     48.000000
  0.403846  0.403846  0.250000     24.000000
  0.442308  0.403846  0.250000     48.000000
  0.480769  0.403846  0.250000     48.000000
 -0.480769  0.403846  0.250000     48.000000
 -0.442308  0.403846  0.250000     48.000000
 -0.403846  0.403846  0.250000     48.000000
 -0.365385  0.403846  0.250000     48.000000
 -0.326923  0.403846  0.250000     48.000000
 -0.288462  0.403846  0.250000     48.000000
 -0.250000  0.403846  0.250000     48.000000
  0.442308  0.442308  0.250000     24.000000
  0.480769  0.442308  0.250000     48.000000
 -0.480769  0.442308  0.250000     48.000000
 -0.442308  0.442308  0.250000     48.000000
 -0.403846  0.442308  0.250000     48.000000
 -0.365385  0.442308  0.250000     48.000000
 -0.326923  0.442308  0.250000     48.000000
 -0.288462  0.442308  0.250000     48.000000
 -0.250000  0.442308  0.250000     48.000000
  0.480769  0.480769  0.250000     24.000000
 -0.480769  0.480769  0.250000     48.000000
 -0.442308  0.480769  0.250000     48.000000
 -0.403846  0.480769  0.250000     48.000000
 -0.365385  0.480769  0.250000     48.000000
 -0.326923  0.480769  0.250000     48.000000
 -0.288462  0.480769  0.250000     48.000000
 -0.250000  0.480769  0.250000     48.000000
 -0.480769 -0.480769  0.250000     24.000000
 -0.442308 -0.480769  0.250000     48.000000
 -0.403846 -0.480769  0.250000     48.000000
 -0.365385 -0.480769  0.250000     48.000000
 -0.326923 -0.480769  0.250000     48.000000
 -0.288462 -0.480769  0.250000     48.000000
 -0.442308 -0.442308  0.250000     24.000000
 -0.403846 -0.442308  0.250000     48.000000
 -0.365385 -0.442308  0.250000     48.000000
 -0.326923 -0.442308  0.250000     48.000000
 -0.288462 -0.442308  0.250000     48.000000
 -0.403846 -0.403846  0.250000     24.000000
 -0.365385 -0.403846  0.250000     48.000000
 -0.326923 -0.403846  0.250000     48.000000
 -0.288462 -0.403846  0.250000     48.000000
 -0.365385 -0.365385  0.250000     24.000000
 -0.326923 -0.365385  0.250000     48.000000
 -0.288462 -0.365385  0.250000     48.000000
 -0.326923 -0.326923  0.250000     24.000000
 -0.288462 -0.326923  0.250000     48.000000
 -0.288462 -0.288462  0.250000     24.000000
  0.288462  0.288462  0.288462      8.000000
  0.326923  0.288462  0.288462     24.000000
  0.365385  0.288462  0.288462     24.000000
  0.403846  0.288462  0.288462     24.000000
  0.442308  0.288462  0.288462     24.000000
  0.480769  0.288462  0.288462     24.000000
 -0.480769  0.288462  0.288462     24.000000
 -0.442308  0.288462  0.288462     24.000000
 -0.403846  0.288462  0.288462     24.000000
 -0.365385  0.288462  0.288462     24.000000
 -0.326923  0.288462  0.288462     24.000000
 -0.288462  0.288462  0.288462     24.000000
  0.326923  0.326923  0.288462     24.000000
  0.365385  0.326923  0.288462     48.000000
  0.403846  0.326923  0.288462     48.000000
  0.442308  0.326923  0.288462     48.000000
  0.480769  0.326923  0.288462     48.000000
 -0.480769  0.326923  0.288462     48.000000
 -0.442308  0.326923  0.288462     48.000000
 -0.403846  0.326923  0.288462     48.000000
 -0.365385  0.326923  0.288462     48.000000
 -0.326923  0.326923  0.288462     48.000000
 -0.288462  0.326923  0.288462     48.000000
  0.365385  0.365385  0.288462     24.000000
  0.403846  0.365385  0.288462     48.000000
  0.442308  0.365385  0.288462     48.000000
  0.480769  0.365385  0.288462     48.000000
 -0.480769  0.365385  0.288462     48.000000
 -0.442308  0.365385  0.288462     48.000000
 -0.403846  0.365385  0.288462     48.000000
 -0.365385  0.365385  0.288462     48.000000
 -0.326923  0.365385  0.288462     48.000000
 -0.288462  0.365385  0.288462     48.000000
  0.403846  0.403846  0.288462     24.000000
  0.442308  0.403846  0.288462     48.000000
  0.480769  0.403846  0.288462     48.000000
 -0.480769  0.403846  0.288462     48.000000
 -0.442308  0.403846  0.288462     48.000000
 -0.403846  0.403846  0.288462     48.000000
 -0.365385  0.403846  0.288462     48.000000
 -0.326923  0.403846  0.288462     48.000000
 -0.288462  0.403846  0.288462     48.000000
  0.442308  0.442308  0.288462     24.000000
  0.480769  0.442308  0.288462     48.000000
 -0.480769  0.442308  0.288462     48.000000
 -0.442308  0.442308  0.288462     48.000000
 -0.403846  0.442308  0.288462     48.000000
 -0.365385  0.442308  0.288462     48.000000
 -0.326923  0.442308  0.288462     48.000000
 -0.288462  0.442308  0.288462     48.000000
  0.480769  0.480769  0.288462     24.000000
 -0.480769  0.480769  0.288462     48.000000
 -0.442308  0.480769  0.288462     48.000000
 -0.403846  0.480769  0.288462     48.000000
 -0.365385  0.480769  0.288462     48.000000
 -0.326923  0.480769  0.288462     48.000000
 -0.288462  0.480769  0.288462     48.000000
 -0.480769 -0.480769  0.288462     24.000000
 -0.442308 -0.480769  0.288462     48.000000
 -0.403846 -0.480769  0.288462     48.000000
 -0.365385 -0.480769  0.288462     48.000000
 -0.326923 -0.480769  0.288462     48.000000
 -0.442308 -0.442308  0.288462     24.000000
 -0.403846 -0.442308  0.288462     48.000000
 -0.365385 -0.442308  0.288462     48.000000
 -0.326923 -0.442308  0.288462     48.000000
 -0.403846 -0.403846  0.288462     24.000000
 -0.365385 -0.403846  0.288462     48.000000
 -0.326923 -0.403846  0.288462     48.000000
 -0.365385 -0.365385  0.288462     24.000000
 -0.326923 -0.365385  0.288462     48.000000
 -0.326923 -0.326923  0.288462     24.000000
  0.326923  0.326923  0.326923      8.000000
  0.365385  0.326923  0.326923     24.000000
  0.403846  0.326923  0.326923     24.000000
  0.442308  0.326923  0.326923     24.000000
  0.480769  0.326923  0.326923     24.000000
 -0.480769  0.326923  0.326923     24.000000
 -0.442308  0.326923  0.326923     24.000000
 -0.403846  0.326923  0.326923     24.000000
 -0.365385  0.326923  0.326923     24.000000
 -0.326923  0.326923  0.326923     24.000000
  0.365385  0.365385  0.326923     24.000000
  0.403846  0.365385  0.326923     48.000000
  0.442308  0.365385  0.326923     48.000000
  0.480769  0.365385  0.326923     48.000000
 -0.480769  0.365385  0.326923     48.000000
 -0.442308  0.365385  0.326923     48.000000
 -0.403846  0.365385  0.326923     48.000000
 -0.365385  0.365385  0.326923     48.000000
 -0.326923  0.365385  0.326923     48.000000
  0.403846  0.403846  0.326923     24.000000
  0.442308  0.403846  0.326923     48.000000
  0.480769  0.403846  0.326923     48.000000
 -0.480769  0.403846  0.326923     48.000000
 -0.442308  0.403846  0.326923     48.000000
 -0.403846  0.403846  0.326923     48.000000
 -0.365385  0.403846  0.326923     48.000000
 -0.326923  0.403846  0.326923     48.000000
  0.442308  0.442308  0.326923     24.000000
  0.480769  0.442308  0.326923     48.000000
 -0.480769  0.442308  0.326923     48.000000
 -0.442308  0.442308  0.326923     48.000000
 -0.403846  0.442308  0.326923     48.000000
 -0.365385  0.442308  0.326923     48.000000
 -0.326923  0.442308  0.326923     48.000000
  0.480769  0.480769  0.326923     24.000000
 -0.480769  0.480769  0.326923     48.000000
 -0.442308  0.480769  0.326923     48.000000
 -0.403846  0.480769  0.326923     48.000000
 -0.365385  0.480769  0.326923     48.000000
 -0.326923  0.480769  0.326923     48.000000
 -0.480769 -0.480769  0.326923     24.000000
 -0.442308 -0.480769  0.326923     48.000000
 -0.403846 -0.480769  0.326923     48.000000
 -0.365385 -0.480769  0.326923     48.000000
 -0.442308 -0.442308  0.326923     24.000000
 -0.403846 -0.442308  0.326923     48.000000
 -0.365385 -0.442308  0.326923     48.000000
 -0.403846 -0.403846  0.326923     24.000000
 -0.365385 -0.403846  0.326923     48.000000
 -0.365385 -0.365385  0.326923     24.000000
  0.365385  0.365385  0.365385      8.000000
  0.403846  0.365385  0.365385     24.000000
  0.442308  0.365385  0.365385     24.000000
  0.480769  0.365385  0.365385     24.000000
 -0.480769  0.365385  0.365385     24.000000
 -0.442308  0.365385  0.365385     24.000000
[...]
    1.840460   12.518399   12.518399   12.518399    0.000000    0.000000   -0.000000
    1.850463   12.577014   12.577014   12.577014    0.000000    0.000000   -0.000000
    1.860465   12.636629   12.636629   12.636629    0.000000    0.000000   -0.000000
    1.870468   12.697268   12.697268   12.697268    0.000000    0.000000   -0.000000
    1.880470   12.758956   12.758956   12.758956    0.000000    0.000000   -0.000000
    1.890473   12.821719   12.821719   12.821719    0.000000    0.000000   -0.000000
    1.900475   12.885586   12.885586   12.885586    0.000000    0.000000   -0.000000
    1.910478   12.950583   12.950583   12.950583    0.000000    0.000000   -0.000000
    1.920480   13.016740   13.016740   13.016740    0.000000    0.000000   -0.000000
    1.930483   13.084088   13.084088   13.084088    0.000000    0.000000   -0.000000
    1.940485   13.152657   13.152657   13.152657    0.000000    0.000000   -0.000000
    1.950488   13.222482   13.222482   13.222482    0.000000    0.000000   -0.000000
    1.960490   13.293594   13.293594   13.293594    0.000000    0.000000   -0.000000
    1.970493   13.366031   13.366031   13.366031    0.000000    0.000000   -0.000000
    1.980495   13.439828   13.439828   13.439828    0.000000    0.000000   -0.000000
    1.990498   13.515025   13.515025   13.515025    0.000000    0.000000   -0.000000
    2.000500   13.591659   13.591659   13.591659    0.000000    0.000000   -0.000000
    2.010503   13.669774   13.669774   13.669774    0.000000    0.000000   -0.000000
    2.020505   13.749412   13.749412   13.749412    0.000000    0.000000   -0.000000
    2.030508   13.830617   13.830617   13.830617    0.000000    0.000000   -0.000000
    2.040510   13.913438   13.913438   13.913438    0.000000    0.000000   -0.000000
    2.050513   13.997922   13.997922   13.997922    0.000000    0.000000   -0.000000
    2.060515   14.084120   14.084120   14.084120    0.000000    0.000000   -0.000000
    2.070518   14.172087   14.172087   14.172087    0.000000    0.000000   -0.000000
    2.080520   14.261877   14.261877   14.261877    0.000000    0.000000   -0.000000
    2.090523   14.353548   14.353548   14.353548    0.000000    0.000000   -0.000000
    2.100525   14.447162   14.447162   14.447162    0.000000    0.000000   -0.000000
    2.110528   14.542782   14.542782   14.542782    0.000000    0.000000   -0.000000
    2.120530   14.640474   14.640474   14.640474    0.000000    0.000000   -0.000000
    2.130533   14.740308   14.740308   14.740308    0.000000    0.000000   -0.000000
    2.140535   14.842357   14.842357   14.842357    0.000000    0.000000   -0.000000
    2.150538   14.946698   14.946698   14.946698    0.000000    0.000000   -0.000000
    2.160540   15.053411   15.053411   15.053411    0.000000    0.000000   -0.000000
    2.170543   15.162579   15.162579   15.162579    0.000000    0.000000   -0.000000
    2.180545   15.274292   15.274292   15.274292    0.000000    0.000000   -0.000000
    2.190548   15.388642   15.388642   15.388642    0.000000    0.000000   -0.000000
    2.200550   15.505727   15.505727   15.505727    0.000000    0.000000   -0.000000
    2.210553   15.625649   15.625649   15.625649    0.000000    0.000000   -0.000000
    2.220555   15.748515   15.748515   15.748515    0.000000    0.000000   -0.000000
    2.230558   15.874440   15.874440   15.874440    0.000000    0.000000   -0.000000
    2.240560   16.003541   16.003541   16.003541    0.000000    0.000000   -0.000000
    2.250563   16.135945   16.135945   16.135945    0.000000    0.000000   -0.000000
    2.260565   16.271783   16.271783   16.271783    0.000000    0.000000   -0.000000
    2.270568   16.411193   16.411193   16.411193    0.000000    0.000000   -0.000000
    2.280570   16.554320   16.554320   16.554320    0.000000    0.000000   -0.000000
    2.290573   16.701318   16.701318   16.701318    0.000000    0.000000   -0.000000
    2.300575   16.852347   16.852347   16.852347    0.000000    0.000000   -0.000000
    2.310578   17.007575   17.007575   17.007575    0.000000    0.000000   -0.000000
    2.320580   17.167178   17.167178   17.167178    0.000000    0.000000   -0.000000
    2.330583   17.331339   17.331339   17.331339    0.000000    0.000000   -0.000000
    2.340585   17.500249   17.500249   17.500249    0.000000    0.000000   -0.000000
    2.350588   17.674107   17.674107   17.674107    0.000000    0.000000   -0.000000
    2.360590   17.853116   17.853116   17.853116    0.000000    0.000000   -0.000000
    2.370593   18.037485   18.037485   18.037485    0.000000    0.000000   -0.000000
    2.380595   18.227426   18.227426   18.227426    0.000000    0.000000   -0.000000
    2.390598   18.423150   18.423150   18.423150    0.000000    0.000000   -0.000000
    2.400600   18.624866   18.624866   18.624866    0.000000    0.000000   -0.000000
    2.410603   18.832771   18.832771   18.832771    0.000000    0.000000   -0.000000
    2.420605   19.047048   19.047048   19.047048    0.000000    0.000000   -0.000000
    2.430608   19.267852   19.267852   19.267852    0.000000    0.000000   -0.000000
    2.440610   19.495298   19.495298   19.495298    0.000000    0.000000   -0.000000
    2.450613   19.729445   19.729445   19.729445    0.000000    0.000000   -0.000000
    2.460615   19.970270   19.970270   19.970270    0.000000    0.000000   -0.000000
    2.470618   20.217647   20.217647   20.217647    0.000000    0.000000   -0.000000
    2.480620   20.471306   20.471306   20.471306    0.000000    0.000000   -0.000000
    2.490623   20.730794   20.730794   20.730794    0.000000    0.000000   -0.000000
    2.500625   20.995433   20.995433   20.995433    0.000000    0.000000   -0.000000
    2.510628   21.264274   21.264274   21.264274    0.000000    0.000000   -0.000000
    2.520630   21.536054   21.536054   21.536054    0.000000    0.000000   -0.000000
    2.530633   21.809169   21.809169   21.809169    0.000000    0.000000   -0.000000
    2.540635   22.081667   22.081667   22.081667    0.000000    0.000000   -0.000000
    2.550638   22.351257   22.351257   22.351257    0.000000    0.000000   -0.000000
    2.560640   22.615327   22.615327   22.615327    0.000000    0.000000   -0.000000
    2.570643   22.870958   22.870958   22.870958    0.000000    0.000000   -0.000000
    2.580645   23.114890   23.114890   23.114890    0.000000    0.000000   -0.000000
    2.590648   23.343441   23.343441   23.343441    0.000000    0.000000   -0.000000
    2.600650   23.552377   23.552377   23.552377    0.000000    0.000000   -0.000000
    2.610653   23.736787   23.736787   23.736787    0.000000    0.000000   -0.000000
    2.620655   23.891037   23.891037   23.891037    0.000000    0.000000   -0.000000
    2.630658   24.008922   24.008922   24.008922    0.000000    0.000000   -0.000000
    2.640660   24.084075   24.084075   24.084075    0.000000    0.000000   -0.000000
    2.650663   24.110639   24.110639   24.110639    0.000000    0.000000   -0.000000
    2.660665   24.084099   24.084099   24.084099    0.000000    0.000000   -0.000000
    2.670668   24.002043   24.002043   24.002043    0.000000    0.000000   -0.000000
    2.680670   23.864681   23.864681   23.864681    0.000000    0.000000   -0.000000
    2.690673   23.674991   23.674991   23.674991    0.000000    0.000000   -0.000000
    2.700675   23.438503   23.438503   23.438503   -0.000000    0.000000   -0.000000
    2.710678   23.162851   23.162851   23.162851   -0.000000    0.000000   -0.000000
    2.720680   22.857146   22.857146   22.857146   -0.000000    0.000000   -0.000000
    2.730683   22.531251   22.531251   22.531251   -0.000000    0.000000   -0.000000
    2.740685   22.194946   22.194946   22.194946   -0.000000    0.000000   -0.000000
    2.750688   21.857063   21.857063   21.857063   -0.000000    0.000000   -0.000000
    2.760690   21.524693   21.524693   21.524693   -0.000000    0.000000   -0.000000
    2.770693   21.202655   21.202655   21.202655   -0.000000   -0.000000   -0.000000
    2.780695   20.893409   20.893409   20.893409   -0.000000   -0.000000   -0.000000
    2.790698   20.597443   20.597443   20.597443   -0.000000   -0.000000   -0.000000
    2.800700   20.314039   20.314039   20.314039   -0.000000   -0.000000   -0.000000
    2.810703   20.042124   20.042124   20.042124   -0.000000   -0.000000   -0.000000
    2.820705   19.780892   19.780892   19.780892   -0.000000   -0.000000   -0.000000
    2.830708   19.529993   19.529993   19.529993   -0.000000   -0.000000    0.000000
    2.840710   19.289297   19.289297   19.289297   -0.000000   -0.000000    0.000000
    2.850713   19.058437   19.058437   19.058437   -0.000000   -0.000000    0.000000
    2.860715   18.836398   18.836398   18.836398   -0.000000   -0.000000    0.000000
    2.870718   18.621307   18.621307   18.621307   -0.000000   -0.000000    0.000000
    2.880720   18.410463   18.410463   18.410463   -0.000000   -0.000000    0.000000
    2.890723   18.200562   18.200562   18.200562   -0.000000   -0.000000    0.000000
    2.900725   17.988062   17.988062   17.988062   -0.000000   -0.000000    0.000000
    2.910728   17.769695   17.769695   17.769695   -0.000000   -0.000000    0.000000
    2.920730   17.543091   17.543091   17.543091   -0.000000   -0.000000    0.000000
    2.930733   17.307395   17.307395   17.307395   -0.000000   -0.000000    0.000000
    2.940735   17.063707   17.063707   17.063707   -0.000000    0.000000    0.000000
    2.950738   16.815149   16.815149   16.815149   -0.000000    0.000000    0.000000
    2.960740   16.566477   16.566477   16.566477   -0.000000    0.000000    0.000000
    2.970743   16.323298   16.323298   16.323298   -0.000000    0.000000    0.000000
    2.980745   16.091128   16.091128   16.091128   -0.000000    0.000000    0.000000
    2.990748   15.874521   15.874521   15.874521   -0.000000    0.000000    0.000000
    3.000750   15.676503   15.676503   15.676503   -0.000000    0.000000    0.000000
    3.010753   15.498329   15.498329   15.498329   -0.000000    0.000000   -0.000000
    3.020755   15.339513   15.339513   15.339513   -0.000000    0.000000   -0.000000
    3.030758   15.198031   15.198031   15.198031   -0.000000    0.000000   -0.000000
    3.040760   15.070616   15.070616   15.070616   -0.000000    0.000000   -0.000000
    3.050763   14.953182   14.953182   14.953182   -0.000000    0.000000   -0.000000
    3.060765   14.841340   14.841340   14.841340   -0.000000    0.000000   -0.000000
    3.070768   14.730961   14.730961   14.730961   -0.000000    0.000000   -0.000000
    3.080770   14.618668   14.618668   14.618668   -0.000000    0.000000   -0.000000
    3.090773   14.502134   14.502134   14.502134   -0.000000    0.000000   -0.000000
    3.100775   14.380168   14.380168   14.380168   -0.000000    0.000000   -0.000000
    3.110778   14.252605   14.252605   14.252605   -0.000000    0.000000   -0.000000
    3.120780   14.120081   14.120081   14.120081   -0.000000    0.000000   -0.000000
    3.130783   13.983717   13.983717   13.983717   -0.000000    0.000000   -0.000000
    3.140785   13.844774   13.844774   13.844774   -0.000000    0.000000   -0.000000
    3.150788   13.704301   13.704301   13.704301   -0.000000    0.000000   -0.000000
    3.160790   13.562891   13.562891   13.562891   -0.000000    0.000000    0.000000
    3.170793   13.420587   13.420587   13.420587   -0.000000    0.000000    0.000000
    3.180795   13.276997   13.276997   13.276997   -0.000000    0.000000    0.000000
    3.190798   13.131601   13.131601   13.131601   -0.000000    0.000000    0.000000
    3.200800   12.984203   12.984203   12.984203   -0.000000    0.000000    0.000000
    3.210803   12.835404   12.835404   12.835404   -0.000000    0.000000    0.000000
    3.220805   12.686943   12.686943   12.686943   -0.000000   -0.000000    0.000000
    3.230808   12.541676   12.541676   12.541676   -0.000000   -0.000000    0.000000
    3.240810   12.403111   12.403111   12.403111   -0.000000   -0.000000    0.000000
    3.250813   12.274568   12.274568   12.274568   -0.000000   -0.000000    0.000000
    3.260815   12.158269   12.158269   12.158269   -0.000000   -0.000000    0.000000
    3.270818   12.054740   12.054740   12.054740   -0.000000   -0.000000    0.000000
    3.280820   11.962784   11.962784   11.962784   -0.000000   -0.000000    0.000000
    3.290823   11.880038   11.880038   11.880038   -0.000000   -0.000000    0.000000
    3.300825   11.803874   11.803874   11.803874   -0.000000   -0.000000    0.000000
    3.310828   11.732310   11.732310   11.732310    0.000000   -0.000000    0.000000
    3.320830   11.664617   11.664617   11.664617    0.000000   -0.000000    0.000000
    3.330833   11.601477   11.601477   11.601477    0.000000   -0.000000    0.000000
    3.340835   11.544694   11.544694   11.544694    0.000000   -0.000000    0.000000
    3.350838   11.496544   11.496544   11.496544    0.000000   -0.000000    0.000000
    3.360840   11.458946   11.458946   11.458946    0.000000   -0.000000    0.000000
    3.370843   11.432654   11.432654   11.432654    0.000000    0.000000    0.000000
    3.380845   11.416654   11.416654   11.416654    0.000000    0.000000    0.000000
    3.390848   11.407898   11.407898   11.407898    0.000000    0.000000    0.000000
    3.400850   11.401408   11.401408   11.401408    0.000000    0.000000    0.000000
    3.410853   11.390773   11.390773   11.390773    0.000000    0.000000    0.000000
    3.420855   11.368959   11.368959   11.368959    0.000000    0.000000    0.000000
    3.430858   11.329311   11.329311   11.329311    0.000000    0.000000    0.000000
    3.440860   11.266506   11.266506   11.266506    0.000000    0.000000    0.000000
    3.450863   11.177219   11.177219   11.177219    0.000000    0.000000    0.000000
    3.460865   11.060366   11.060366   11.060366    0.000000    0.000000    0.000000
    3.470868   10.916867   10.916867   10.916867    0.000000    0.000000    0.000000
    3.480870   10.748958   10.748958   10.748958    0.000000    0.000000    0.000000
    3.490873   10.559174   10.559174   10.559174    0.000000    0.000000    0.000000
    3.500875   10.349209   10.349209   10.349209    0.000000    0.000000    0.000000
    3.510878   10.118970   10.118970   10.118970    0.000000    0.000000    0.000000
    3.520880    9.866108    9.866108    9.866108    0.000000    0.000000    0.000000
    3.530883    9.586185    9.586185    9.586185    0.000000    0.000000    0.000000
    3.540885    9.273421    9.273421    9.273421    0.000000    0.000000    0.000000
    3.550888    8.921751    8.921751    8.921751    0.000000    0.000000    0.000000
    3.560890    8.525808    8.525808    8.525808    0.000000    0.000000    0.000000
    3.570893    8.081442    8.081442    8.081442    0.000000    0.000000    0.000000
    3.580895    7.585619    7.585619    7.585619    0.000000    0.000000    0.000000
    3.590898    7.035864    7.035864    7.035864    0.000000    0.000000    0.000000
    3.600900    6.429607    6.429607    6.429607    0.000000    0.000000    0.000000
    3.610903    5.763863    5.763863    5.763863    0.000000    0.000000    0.000000
    3.620905    5.035390    5.035390    5.035390    0.000000    0.000000    0.000000
    3.630908    4.241206    4.241206    4.241206    0.000000    0.000000    0.000000
    3.640910    3.379127    3.379127    3.379127    0.000000    0.000000    0.000000
    3.650913    2.448000    2.448000    2.448000    0.000000    0.000000    0.000000
    3.660915    1.447501    1.447501    1.447501    0.000000    0.000000    0.000000
    3.670918    0.377588    0.377588    0.377588    0.000000    0.000000    0.000000
    3.680920   -0.762119   -0.762119   -0.762119    0.000000    0.000000    0.000000
    3.690923   -1.972712   -1.972712   -1.972712    0.000000    0.000000    0.000000
    3.700925   -3.255883   -3.255883   -3.255883    0.000000    0.000000    0.000000
    3.710928   -4.613204   -4.613204   -4.613204    0.000000    0.000000    0.000000
    3.720930   -6.044853   -6.044853   -6.044853    0.000000    0.000000    0.000000
    3.730933   -7.548015   -7.548015   -7.548015    0.000000    0.000000   -0.000000
    3.740935   -9.115320   -9.115320   -9.115320    0.000000    0.000000   -0.000000
    3.750938  -10.733727  -10.733727  -10.733727    0.000000    0.000000   -0.000000
    3.760940  -12.384203  -12.384203  -12.384203    0.000000    0.000000   -0.000000
    3.770943  -14.042399  -14.042399  -14.042399    0.000000    0.000000   -0.000000
    3.780945  -15.680333  -15.680333  -15.680333    0.000000    0.000000   -0.000000
    3.790948  -17.268943  -17.268943  -17.268943    0.000000    0.000000   -0.000000
    3.800950  -18.781182  -18.781182  -18.781182   -0.000000    0.000000   -0.000000
    3.810953  -20.195117  -20.195117  -20.195117   -0.000000    0.000000   -0.000000
    3.820955  -21.496394  -21.496394  -21.496394   -0.000000    0.000000   -0.000000
    3.830958  -22.679496  -22.679496  -22.679496   -0.000000    0.000000   -0.000000
    3.840960  -23.747511  -23.747511  -23.747511   -0.000000    0.000000   -0.000000
    3.850963  -24.710571  -24.710571  -24.710571   -0.000000    0.000000   -0.000000
    3.860965  -25.583371  -25.583371  -25.583371   -0.000000    0.000000   -0.000000
    3.870968  -26.382277  -26.382277  -26.382277   -0.000000    0.000000   -0.000000
    3.880970  -27.122462  -27.122462  -27.122462   -0.000000    0.000000   -0.000000
    3.890973  -27.815316  -27.815316  -27.815316   -0.000000    0.000000   -0.000000
    3.900975  -28.466392  -28.466392  -28.466392   -0.000000   -0.000000   -0.000000
    3.910978  -29.074160  -29.074160  -29.074160   -0.000000   -0.000000   -0.000000
    3.920980  -29.629961  -29.629961  -29.629961   -0.000000   -0.000000   -0.000000
    3.930983  -30.119397  -30.119397  -30.119397   -0.000000   -0.000000   -0.000000
    3.940985  -30.525056  -30.525056  -30.525056   -0.000000   -0.000000   -0.000000
    3.950988  -30.829951  -30.829951  -30.829951   -0.000000   -0.000000    0.000000
    3.960990  -31.020754  -31.020754  -31.020754   -0.000000   -0.000000    0.000000
    3.970993  -31.089955  -31.089955  -31.089955   -0.000000   -0.000000    0.000000
    3.980995  -31.036578  -31.036578  -31.036578   -0.000000   -0.000000    0.000000
    3.990998  -30.865660  -30.865660  -30.865660   -0.000000   -0.000000    0.000000
 
 The outermost node in the dielectric function lies at epsilon=   3.7


--------------------------------------------------------------------------------------------------------


    OPTICS:  cpu time      1.9370: real time      1.9378
    4ORBIT:  cpu time      0.0000: real time      0.0000



 total charge

# of ion       s       p       d       tot
------------------------------------------
    1        0.289   0.364   0.000   0.653
    2        0.289   0.364   0.000   0.653
--------------------------------------------------
tot          0.578   0.728   0.000   1.306
 

 total amount of memory used by VASP MPI-rank0    44075. kBytes
=======================================================================

   base      :      30000. kBytes
   nonl-proj :       8808. kBytes
   fftplans  :        193. kBytes
   grid      :        249. kBytes
   one-center:          3. kBytes
   wavefun   :       4822. kBytes
 
  
  
 General timing and accounting informations for this job:
 ========================================================
  
                  Total CPU time used (sec):      137.076
                            User time (sec):      131.816
                          System time (sec):        5.260
                         Elapsed time (sec):      137.518
  
                   Maximum memory used (kb):      106076.
                   Average memory used (kb):          N/A
  
                          Minor page faults:        28387
                          Major page faults:            2
                 Voluntary context switches:         2122
