vasp.4.6.35 3Apr08 complex 
 executed on             LinuxIFC date 2025.02.21  14:24:31
 serial version


--------------------------------------------------------------------------------------------------------


 INCAR:
 POTCAR:   PAW_PBE Al 04Jan2001                   
 POTCAR:   PAW_PBE Al 04Jan2001                   
   VRHFIN =Al: s2p1                                                             
   LEXCH  = PE                                                                  
   EATOM  =    53.5387 eV,    3.9350 Ry                                         
                                                                                
   TITEL  = PAW_PBE Al 04Jan2001                                                
   LULTRA =        F    use ultrasoft PP ?                                      
   IUNSCR =        1    unscreen: 0-lin 1-nonlin 2-no                           
   RPACOR =    1.500    partial core radius                                     
   POMASS =   26.982; ZVAL   =    3.000    mass and valenz                      
   RCORE  =    1.900    outmost cutoff radius                                   
   RWIGS  =    2.650; RWIGS  =    1.402    wigner-seitz radius (au A)           
   ENMAX  =  240.300; ENMIN  =  180.225 eV                                      
   ICORE  =        2    local potential                                         
   LCOR   =        T    correct aug charges                                     
   LPAW   =        T    paw PP                                                  
   EAUG   =  291.052                                                            
   DEXC   =    -.041                                                            
   RMAX   =    2.974    core radius for proj-oper                               
   RAUG   =    1.300    factor for augmentation sphere                          
   RDEP   =    1.966    radius for radial grids                                 
   QCUT   =   -4.203; QGAM   =    8.405    optimization parameters              
                                                                                
   Description                                                                  
     l     E      TYP  RCUT    TYP  RCUT                                        
     0   .000     23  1.900                                                     
     0   .000     23  1.900                                                     
     1   .000     23  1.900                                                     
     1  1.000     23  1.900                                                     
     2   .000      7  1.900                                                     
  local pseudopotential read in
  partial core-charges read in
  atomic valenz-charges read in
  non local Contribution for L=           0  read in
    real space projection operators read in
  non local Contribution for L=           0  read in
    real space projection operators read in
  non local Contribution for L=           1  read in
    real space projection operators read in
  non local Contribution for L=           1  read in
    real space projection operators read in
    PAW grid and wavefunctions read in
 
   number of l-projection  operators is LMAX  =           4
   number of lm-projection operators is LMMAX =           8
 
 PAW_PBE Al 04Jan2001                   :
 energy of atom  1       EATOM=  -53.5387
 kinetic energy error for atom=    0.0007 (will be added to EATOM!!)
 
 EXHCAR: internal setup
 exchange correlation table for  LEXCH =        8
   RHO(1)=    0.500       N(1)  =     2000
   RHO(2)=  100.500       N(2)  =     4000
 
 POSCAR: FCC Aluminum                            
  positions in direct lattice
  velocities in cartesian coordinates
 


--------------------------------------------------------------------------------------------------------


 ion  position               nearest neighbor table
   1  0.000  0.000  0.000-
 
  LATTYP: Found a face centered cubic cell.
 ALAT       =     4.0388820958
  
  Lattice vectors:
  
 A1 = (   0.0000000000,   2.0194410479,   2.0194410479)
 A2 = (   2.0194410479,   0.0000000000,   2.0194410479)
 A3 = (   2.0194410479,   2.0194410479,   0.0000000000)
 Subroutine PRICEL returns:
 Original cell was already a primitive cell.
 

Analysis of symmetry for initial positions (statically):

 Routine SETGRP: Setting up the symmetry group for a 
 face centered cubic supercell.


 Subroutine GETGRP returns: Found 48 space group operations
 (whereof 48 operations were pure point group operations)
 out of a pool of 48 trial point group operations.


The static configuration has the point symmetry O_h .

Analysis of symmetry for dynamics (positions and initial velocities):

 Subroutine DYNSYM returns: Found 48 space group operations
 (whereof 48 operations were pure point group operations)
 out of a pool of 48 trial space group operations
 (whereof 48 operations were pure point group operations)
 and found also     1 'primitive' translations


The dynamic configuration has the point symmetry O_h .

Analysis of magnetic symmetry:

 Subroutine MAGSYM returns: Found 48 space group operations
 (whereof 48 operations were pure point group operations)
 out of a pool of 48 trial space group operations
 (whereof 48 operations were pure point group operations)
 and found also     1 'primitive' translations


The magnetic configuration has the point symmetry O_h .
 
 
 KPOINTS: KPOINTS File, automatically generated by

Automatic generation of k-mesh.
 
 Subroutine IBZKPT returns following result:
 ===========================================
 
 Found    256 irreducible k-points:
 
 Following reciprocal coordinates:
            Coordinates               Weight
  0.000000  0.000000  0.000000      1.000000
  0.050000  0.000000  0.000000      8.000000
  0.100000  0.000000  0.000000      8.000000
  0.150000  0.000000  0.000000      8.000000
  0.200000  0.000000  0.000000      8.000000
  0.250000  0.000000  0.000000      8.000000
  0.300000  0.000000  0.000000      8.000000
  0.350000  0.000000  0.000000      8.000000
  0.400000  0.000000  0.000000      8.000000
  0.450000  0.000000  0.000000      8.000000
  0.500000  0.000000  0.000000      4.000000
  0.050000  0.050000  0.000000      6.000000
  0.100000  0.050000  0.000000     24.000000
  0.150000  0.050000  0.000000     24.000000
  0.200000  0.050000  0.000000     24.000000
  0.250000  0.050000  0.000000     24.000000
  0.300000  0.050000  0.000000     24.000000
  0.350000  0.050000  0.000000     24.000000
  0.400000  0.050000  0.000000     24.000000
  0.450000  0.050000  0.000000     24.000000
  0.500000  0.050000  0.000000     24.000000
 -0.450000  0.050000  0.000000     24.000000
 -0.400000  0.050000  0.000000     24.000000
 -0.350000  0.050000  0.000000     24.000000
 -0.300000  0.050000  0.000000     24.000000
 -0.250000  0.050000  0.000000     24.000000
 -0.200000  0.050000  0.000000     24.000000
 -0.150000  0.050000  0.000000     24.000000
 -0.100000  0.050000  0.000000     24.000000
 -0.050000  0.050000  0.000000     12.000000
  0.100000  0.100000  0.000000      6.000000
  0.150000  0.100000  0.000000     24.000000
  0.200000  0.100000  0.000000     24.000000
  0.250000  0.100000  0.000000     24.000000
  0.300000  0.100000  0.000000     24.000000
  0.350000  0.100000  0.000000     24.000000
  0.400000  0.100000  0.000000     24.000000
  0.450000  0.100000  0.000000     24.000000
  0.500000  0.100000  0.000000     24.000000
 -0.450000  0.100000  0.000000     24.000000
 -0.400000  0.100000  0.000000     24.000000
 -0.350000  0.100000  0.000000     24.000000
 -0.300000  0.100000  0.000000     24.000000
 -0.250000  0.100000  0.000000     24.000000
 -0.200000  0.100000  0.000000     24.000000
 -0.150000  0.100000  0.000000     24.000000
 -0.100000  0.100000  0.000000     12.000000
  0.150000  0.150000  0.000000      6.000000
  0.200000  0.150000  0.000000     24.000000
  0.250000  0.150000  0.000000     24.000000
  0.300000  0.150000  0.000000     24.000000
  0.350000  0.150000  0.000000     24.000000
  0.400000  0.150000  0.000000     24.000000
  0.450000  0.150000  0.000000     24.000000
  0.500000  0.150000  0.000000     24.000000
 -0.450000  0.150000  0.000000     24.000000
 -0.400000  0.150000  0.000000     24.000000
 -0.350000  0.150000  0.000000     24.000000
 -0.300000  0.150000  0.000000     24.000000
 -0.250000  0.150000  0.000000     24.000000
 -0.200000  0.150000  0.000000     24.000000
 -0.150000  0.150000  0.000000     12.000000
  0.200000  0.200000  0.000000      6.000000
  0.250000  0.200000  0.000000     24.000000
  0.300000  0.200000  0.000000     24.000000
  0.350000  0.200000  0.000000     24.000000
  0.400000  0.200000  0.000000     24.000000
  0.450000  0.200000  0.000000     24.000000
  0.500000  0.200000  0.000000     24.000000
 -0.450000  0.200000  0.000000     24.000000
 -0.400000  0.200000  0.000000     24.000000
 -0.350000  0.200000  0.000000     24.000000
 -0.300000  0.200000  0.000000     24.000000
 -0.250000  0.200000  0.000000     24.000000
 -0.200000  0.200000  0.000000     12.000000
  0.250000  0.250000  0.000000      6.000000
  0.300000  0.250000  0.000000     24.000000
  0.350000  0.250000  0.000000     24.000000
  0.400000  0.250000  0.000000     24.000000
  0.450000  0.250000  0.000000     24.000000
  0.500000  0.250000  0.000000     24.000000
 -0.450000  0.250000  0.000000     24.000000
 -0.400000  0.250000  0.000000     24.000000
 -0.350000  0.250000  0.000000     24.000000
 -0.300000  0.250000  0.000000     24.000000
 -0.250000  0.250000  0.000000     12.000000
  0.300000  0.300000  0.000000      6.000000
  0.350000  0.300000  0.000000     24.000000
  0.400000  0.300000  0.000000     24.000000
  0.450000  0.300000  0.000000     24.000000
  0.500000  0.300000  0.000000     24.000000
 -0.450000  0.300000  0.000000     24.000000
 -0.400000  0.300000  0.000000     24.000000
 -0.350000  0.300000  0.000000     24.000000
 -0.300000  0.300000  0.000000     12.000000
  0.350000  0.350000  0.000000      6.000000
  0.400000  0.350000  0.000000     24.000000
  0.450000  0.350000  0.000000     24.000000
  0.500000  0.350000  0.000000     24.000000
 -0.450000  0.350000  0.000000     24.000000
 -0.400000  0.350000  0.000000     24.000000
 -0.350000  0.350000  0.000000     12.000000
  0.400000  0.400000  0.000000      6.000000
  0.450000  0.400000  0.000000     24.000000
  0.500000  0.400000  0.000000     24.000000
 -0.450000  0.400000  0.000000     24.000000
 -0.400000  0.400000  0.000000     12.000000
  0.450000  0.450000  0.000000      6.000000
  0.500000  0.450000  0.000000     24.000000
 -0.450000  0.450000  0.000000     12.000000
  0.500000  0.500000  0.000000      3.000000
  0.150000  0.100000  0.050000     24.000000
  0.200000  0.100000  0.050000     48.000000
  0.250000  0.100000  0.050000     48.000000
  0.300000  0.100000  0.050000     48.000000
  0.350000  0.100000  0.050000     48.000000
  0.400000  0.100000  0.050000     48.000000
  0.450000  0.100000  0.050000     48.000000
  0.500000  0.100000  0.050000     48.000000
 -0.450000  0.100000  0.050000     24.000000
  0.200000  0.150000  0.050000     24.000000
  0.250000  0.150000  0.050000     48.000000
  0.300000  0.150000  0.050000     48.000000
  0.350000  0.150000  0.050000     48.000000
  0.400000  0.150000  0.050000     48.000000
  0.450000  0.150000  0.050000     48.000000
  0.500000  0.150000  0.050000     48.000000
 -0.450000  0.150000  0.050000     48.000000
 -0.400000  0.150000  0.050000     48.000000
 -0.350000  0.150000  0.050000     48.000000
 -0.300000  0.150000  0.050000     48.000000
 -0.250000  0.150000  0.050000     48.000000
 -0.200000  0.150000  0.050000     48.000000
 -0.150000  0.150000  0.050000     48.000000
 -0.100000  0.150000  0.050000     24.000000
  0.250000  0.200000  0.050000     24.000000
  0.300000  0.200000  0.050000     48.000000
  0.350000  0.200000  0.050000     48.000000
  0.400000  0.200000  0.050000     48.000000
  0.450000  0.200000  0.050000     48.000000
  0.500000  0.200000  0.050000     48.000000
 -0.450000  0.200000  0.050000     48.000000
 -0.400000  0.200000  0.050000     48.000000
 -0.350000  0.200000  0.050000     48.000000
 -0.300000  0.200000  0.050000     48.000000
 -0.250000  0.200000  0.050000     48.000000
 -0.200000  0.200000  0.050000     48.000000
 -0.150000  0.200000  0.050000     24.000000
  0.300000  0.250000  0.050000     24.000000
  0.350000  0.250000  0.050000     48.000000
  0.400000  0.250000  0.050000     48.000000
  0.450000  0.250000  0.050000     48.000000
  0.500000  0.250000  0.050000     48.000000
 -0.450000  0.250000  0.050000     48.000000
 -0.400000  0.250000  0.050000     48.000000
 -0.350000  0.250000  0.050000     48.000000
 -0.300000  0.250000  0.050000     48.000000
 -0.250000  0.250000  0.050000     48.000000
 -0.200000  0.250000  0.050000     24.000000
  0.350000  0.300000  0.050000     24.000000
  0.400000  0.300000  0.050000     48.000000
  0.450000  0.300000  0.050000     48.000000
  0.500000  0.300000  0.050000     48.000000
 -0.450000  0.300000  0.050000     48.000000
 -0.400000  0.300000  0.050000     48.000000
 -0.350000  0.300000  0.050000     48.000000
 -0.300000  0.300000  0.050000     48.000000
 -0.250000  0.300000  0.050000     24.000000
  0.400000  0.350000  0.050000     24.000000
  0.450000  0.350000  0.050000     48.000000
  0.500000  0.350000  0.050000     48.000000
 -0.450000  0.350000  0.050000     48.000000
 -0.400000  0.350000  0.050000     48.000000
 -0.350000  0.350000  0.050000     48.000000
 -0.300000  0.350000  0.050000     24.000000
  0.450000  0.400000  0.050000     24.000000
  0.500000  0.400000  0.050000     48.000000
 -0.450000  0.400000  0.050000     48.000000
 -0.400000  0.400000  0.050000     48.000000
 -0.350000  0.400000  0.050000     24.000000
  0.500000  0.450000  0.050000     24.000000
 -0.450000  0.450000  0.050000     48.000000
 -0.400000  0.450000  0.050000     24.000000
 -0.450000  0.500000  0.050000     12.000000
  0.300000  0.200000  0.100000     24.000000
  0.350000  0.200000  0.100000     48.000000
  0.400000  0.200000  0.100000     48.000000
  0.450000  0.200000  0.100000     48.000000
  0.500000  0.200000  0.100000     48.000000
 -0.450000  0.200000  0.100000     48.000000
 -0.400000  0.200000  0.100000     24.000000
  0.350000  0.250000  0.100000     24.000000
  0.400000  0.250000  0.100000     48.000000
  0.450000  0.250000  0.100000     48.000000
  0.500000  0.250000  0.100000     48.000000
 -0.450000  0.250000  0.100000     48.000000
 -0.400000  0.250000  0.100000     48.000000
 -0.350000  0.250000  0.100000     48.000000
 -0.300000  0.250000  0.100000     48.000000
 -0.250000  0.250000  0.100000     48.000000
 -0.200000  0.250000  0.100000     48.000000
 -0.150000  0.250000  0.100000     24.000000
  0.400000  0.300000  0.100000     24.000000
  0.450000  0.300000  0.100000     48.000000
  0.500000  0.300000  0.100000     48.000000
 -0.450000  0.300000  0.100000     48.000000
 -0.400000  0.300000  0.100000     48.000000
 -0.350000  0.300000  0.100000     48.000000
 -0.300000  0.300000  0.100000     48.000000
 -0.250000  0.300000  0.100000     48.000000
 -0.200000  0.300000  0.100000     24.000000
  0.450000  0.350000  0.100000     24.000000
  0.500000  0.350000  0.100000     48.000000
 -0.450000  0.350000  0.100000     48.000000
 -0.400000  0.350000  0.100000     48.000000
 -0.350000  0.350000  0.100000     48.000000
 -0.300000  0.350000  0.100000     48.000000
 -0.250000  0.350000  0.100000     24.000000
  0.500000  0.400000  0.100000     24.000000
 -0.450000  0.400000  0.100000     48.000000
 -0.400000  0.400000  0.100000     48.000000
 -0.350000  0.400000  0.100000     48.000000
 -0.300000  0.400000  0.100000     24.000000
 -0.450000  0.450000  0.100000     24.000000
 -0.400000  0.450000  0.100000     48.000000
 -0.350000  0.450000  0.100000     24.000000
 -0.400000  0.500000  0.100000     12.000000
  0.450000  0.300000  0.150000     24.000000
  0.500000  0.300000  0.150000     48.000000
 -0.450000  0.300000  0.150000     48.000000
 -0.400000  0.300000  0.150000     48.000000
 -0.350000  0.300000  0.150000     24.000000
  0.500000  0.350000  0.150000     24.000000
 -0.450000  0.350000  0.150000     48.000000
 -0.400000  0.350000  0.150000     48.000000
 -0.350000  0.350000  0.150000     48.000000
 -0.300000  0.350000  0.150000     48.000000
 -0.250000  0.350000  0.150000     48.000000
 -0.200000  0.350000  0.150000     24.000000
 -0.450000  0.400000  0.150000     24.000000
 -0.400000  0.400000  0.150000     48.000000
 -0.350000  0.400000  0.150000     48.000000
 -0.300000  0.400000  0.150000     48.000000
 -0.250000  0.400000  0.150000     24.000000
 -0.400000  0.450000  0.150000     24.000000
 -0.350000  0.450000  0.150000     48.000000
 -0.300000  0.450000  0.150000     24.000000
 -0.350000  0.500000  0.150000     12.000000
 -0.400000  0.400000  0.200000     24.000000
 -0.350000  0.400000  0.200000     48.000000
 -0.300000  0.400000  0.200000     24.000000
 -0.350000  0.450000  0.200000     24.000000
 -0.300000  0.450000  0.200000     48.000000
 -0.250000  0.450000  0.200000     24.000000
 -0.300000  0.500000  0.200000     12.000000
 -0.250000  0.500000  0.250000      6.000000
 
 Following cartesian coordinates:
            Coordinates               Weight
  0.000000  0.000000  0.000000      1.000000
 -0.012583  0.012583  0.012583      8.000000
 -0.025165  0.025165  0.025165      8.000000
 -0.037748  0.037748  0.037748      8.000000
 -0.050331  0.050331  0.050331      8.000000
 -0.062913  0.062913  0.062913      8.000000
 -0.075496  0.075496  0.075496      8.000000
 -0.088078  0.088078  0.088078      8.000000
 -0.100661  0.100661  0.100661      8.000000
 -0.113244  0.113244  0.113244      8.000000
 -0.125826  0.125826  0.125826      4.000000
  0.000000  0.000000  0.025165      6.000000
 -0.012583  0.012583  0.037748     24.000000
 -0.025165  0.025165  0.050331     24.000000
 -0.037748  0.037748  0.062913     24.000000
 -0.050331  0.050331  0.075496     24.000000
 -0.062913  0.062913  0.088078     24.000000
 -0.075496  0.075496  0.100661     24.000000
 -0.088078  0.088078  0.113244     24.000000
 -0.100661  0.100661  0.125826     24.000000
 -0.113244  0.113244  0.138409     24.000000
  0.125826 -0.125826 -0.100661     24.000000
  0.113244 -0.113244 -0.088078     24.000000
  0.100661 -0.100661 -0.075496     24.000000
  0.088078 -0.088078 -0.062913     24.000000
  0.075496 -0.075496 -0.050331     24.000000
  0.062913 -0.062913 -0.037748     24.000000
  0.050331 -0.050331 -0.025165     24.000000
  0.037748 -0.037748 -0.012583     24.000000
  0.025165 -0.025165  0.000000     12.000000
  0.000000  0.000000  0.050331      6.000000
 -0.012583  0.012583  0.062913     24.000000
 -0.025165  0.025165  0.075496     24.000000
 -0.037748  0.037748  0.088078     24.000000
 -0.050331  0.050331  0.100661     24.000000
 -0.062913  0.062913  0.113244     24.000000
 -0.075496  0.075496  0.125826     24.000000
 -0.088078  0.088078  0.138409     24.000000
 -0.100661  0.100661  0.150992     24.000000
  0.138409 -0.138409 -0.088078     24.000000
  0.125826 -0.125826 -0.075496     24.000000
  0.113244 -0.113244 -0.062913     24.000000
  0.100661 -0.100661 -0.050331     24.000000
  0.088078 -0.088078 -0.037748     24.000000
  0.075496 -0.075496 -0.025165     24.000000
  0.062913 -0.062913 -0.012583     24.000000
  0.050331 -0.050331  0.000000     12.000000
  0.000000  0.000000  0.075496      6.000000
 -0.012583  0.012583  0.088078     24.000000
 -0.025165  0.025165  0.100661     24.000000
 -0.037748  0.037748  0.113244     24.000000
 -0.050331  0.050331  0.125826     24.000000
 -0.062913  0.062913  0.138409     24.000000
 -0.075496  0.075496  0.150992     24.000000
 -0.088078  0.088078  0.163574     24.000000
  0.150992 -0.150992 -0.075496     24.000000
  0.138409 -0.138409 -0.062913     24.000000
  0.125826 -0.125826 -0.050331     24.000000
  0.113244 -0.113244 -0.037748     24.000000
  0.100661 -0.100661 -0.025165     24.000000
  0.088078 -0.088078 -0.012583     24.000000
  0.075496 -0.075496  0.000000     12.000000
  0.000000  0.000000  0.100661      6.000000
 -0.012583  0.012583  0.113244     24.000000
 -0.025165  0.025165  0.125826     24.000000
 -0.037748  0.037748  0.138409     24.000000
 -0.050331  0.050331  0.150992     24.000000
 -0.062913  0.062913  0.163574     24.000000
 -0.075496  0.075496  0.176157     24.000000
  0.163574 -0.163574 -0.062913     24.000000
  0.150992 -0.150992 -0.050331     24.000000
  0.138409 -0.138409 -0.037748     24.000000
  0.125826 -0.125826 -0.025165     24.000000
  0.113244 -0.113244 -0.012583     24.000000
  0.100661 -0.100661  0.000000     12.000000
  0.000000  0.000000  0.125826      6.000000
 -0.012583  0.012583  0.138409     24.000000
 -0.025165  0.025165  0.150992     24.000000
 -0.037748  0.037748  0.163574     24.000000
 -0.050331  0.050331  0.176157     24.000000
 -0.062913  0.062913  0.188740     24.000000
  0.176157 -0.176157 -0.050331     24.000000
  0.163574 -0.163574 -0.037748     24.000000
  0.150992 -0.150992 -0.025165     24.000000
  0.138409 -0.138409 -0.012583     24.000000
  0.125826 -0.125826  0.000000     12.000000
  0.000000  0.000000  0.150992      6.000000
 -0.012583  0.012583  0.163574     24.000000
 -0.025165  0.025165  0.176157     24.000000
 -0.037748  0.037748  0.188740     24.000000
 -0.050331  0.050331  0.201322     24.000000
  0.188740 -0.188740 -0.037748     24.000000
  0.176157 -0.176157 -0.025165     24.000000
  0.163574 -0.163574 -0.012583     24.000000
  0.150992 -0.150992  0.000000     12.000000
  0.000000  0.000000  0.176157      6.000000
 -0.012583  0.012583  0.188740     24.000000
 -0.025165  0.025165  0.201322     24.000000
 -0.037748  0.037748  0.213905     24.000000
  0.201322 -0.201322 -0.025165     24.000000
  0.188740 -0.188740 -0.012583     24.000000
  0.176157 -0.176157  0.000000     12.000000
  0.000000  0.000000  0.201322      6.000000
 -0.012583  0.012583  0.213905     24.000000
 -0.025165  0.025165  0.226488     24.000000
  0.213905 -0.213905 -0.012583     24.000000
  0.201322 -0.201322  0.000000     12.000000
  0.000000  0.000000  0.226488      6.000000
 -0.012583  0.012583  0.239070     24.000000
  0.226488 -0.226488  0.000000     12.000000
  0.000000  0.000000  0.251653      3.000000
 -0.000000  0.025165  0.050331     24.000000
 -0.012583  0.037748  0.062913     48.000000
 -0.025165  0.050331  0.075496     48.000000
 -0.037748  0.062913  0.088078     48.000000
 -0.050331  0.075496  0.100661     48.000000
 -0.062913  0.088078  0.113244     48.000000
 -0.075496  0.100661  0.125826     48.000000
 -0.088078  0.113244  0.138409     48.000000
  0.150992 -0.125826 -0.100661     24.000000
  0.000000  0.025165  0.075496     24.000000
 -0.012583  0.037748  0.088078     48.000000
 -0.025165  0.050331  0.100661     48.000000
 -0.037748  0.062913  0.113244     48.000000
 -0.050331  0.075496  0.125826     48.000000
 -0.062913  0.088078  0.138409     48.000000
 -0.075496  0.100661  0.150992     48.000000
  0.163574 -0.138409 -0.088078     48.000000
  0.150992 -0.125826 -0.075496     48.000000
  0.138409 -0.113244 -0.062913     48.000000
  0.125826 -0.100661 -0.050331     48.000000
  0.113244 -0.088078 -0.037748     48.000000
  0.100661 -0.075496 -0.025165     48.000000
  0.088078 -0.062913 -0.012583     48.000000
  0.075496 -0.050331  0.000000     24.000000
  0.000000  0.025165  0.100661     24.000000
 -0.012583  0.037748  0.113244     48.000000
 -0.025165  0.050331  0.125826     48.000000
 -0.037748  0.062913  0.138409     48.000000
 -0.050331  0.075496  0.150992     48.000000
 -0.062913  0.088078  0.163574     48.000000
  0.176157 -0.150992 -0.075496     48.000000
  0.163574 -0.138409 -0.062913     48.000000
  0.150992 -0.125826 -0.050331     48.000000
  0.138409 -0.113244 -0.037748     48.000000
  0.125826 -0.100661 -0.025165     48.000000
  0.113244 -0.088078 -0.012583     48.000000
  0.100661 -0.075496  0.000000     24.000000
  0.000000  0.025165  0.125826     24.000000
 -0.012583  0.037748  0.138409     48.000000
 -0.025165  0.050331  0.150992     48.000000
 -0.037748  0.062913  0.163574     48.000000
 -0.050331  0.075496  0.176157     48.000000
  0.188740 -0.163574 -0.062913     48.000000
  0.176157 -0.150992 -0.050331     48.000000
  0.163574 -0.138409 -0.037748     48.000000
  0.150992 -0.125826 -0.025165     48.000000
  0.138409 -0.113244 -0.012583     48.000000
  0.125826 -0.100661  0.000000     24.000000
  0.000000  0.025165  0.150992     24.000000
 -0.012583  0.037748  0.163574     48.000000
 -0.025165  0.050331  0.176157     48.000000
 -0.037748  0.062913  0.188740     48.000000
  0.201322 -0.176157 -0.050331     48.000000
  0.188740 -0.163574 -0.037748     48.000000
  0.176157 -0.150992 -0.025165     48.000000
  0.163574 -0.138409 -0.012583     48.000000
  0.150992 -0.125826  0.000000     24.000000
 -0.000000  0.025165  0.176157     24.000000
 -0.012583  0.037748  0.188740     48.000000
 -0.025165  0.050331  0.201322     48.000000
  0.213905 -0.188740 -0.037748     48.000000
  0.201322 -0.176157 -0.025165     48.000000
  0.188740 -0.163574 -0.012583     48.000000
  0.176157 -0.150992  0.000000     24.000000
  0.000000  0.025165  0.201322     24.000000
 -0.012583  0.037748  0.213905     48.000000
  0.226488 -0.201322 -0.025165     48.000000
  0.213905 -0.188740 -0.012583     48.000000
  0.201322 -0.176157  0.000000     24.000000
  0.000000  0.025165  0.226488     24.000000
  0.239070 -0.213905 -0.012583     48.000000
  0.226488 -0.201322  0.000000     24.000000
  0.251653 -0.226488  0.000000     12.000000
  0.000000  0.050331  0.100661     24.000000
 -0.012583  0.062913  0.113244     48.000000
 -0.025165  0.075496  0.125826     48.000000
 -0.037748  0.088078  0.138409     48.000000
 -0.050331  0.100661  0.150992     48.000000
  0.188740 -0.138409 -0.088078     48.000000
  0.176157 -0.125826 -0.075496     24.000000
  0.000000  0.050331  0.125826     24.000000
 -0.012583  0.062913  0.138409     48.000000
 -0.025165  0.075496  0.150992     48.000000
 -0.037748  0.088078  0.163574     48.000000
  0.201322 -0.150992 -0.075496     48.000000
  0.188740 -0.138409 -0.062913     48.000000
  0.176157 -0.125826 -0.050331     48.000000
  0.163574 -0.113244 -0.037748     48.000000
  0.150992 -0.100661 -0.025165     48.000000
  0.138409 -0.088078 -0.012583     48.000000
  0.125826 -0.075496  0.000000     24.000000
 -0.000000  0.050331  0.150992     24.000000
 -0.012583  0.062913  0.163574     48.000000
 -0.025165  0.075496  0.176157     48.000000
  0.213905 -0.163574 -0.062913     48.000000
  0.201322 -0.150992 -0.050331     48.000000
  0.188740 -0.138409 -0.037748     48.000000
  0.176157 -0.125826 -0.025165     48.000000
  0.163574 -0.113244 -0.012583     48.000000
  0.150992 -0.100661  0.000000     24.000000
 -0.000000  0.050331  0.176157     24.000000
 -0.012583  0.062913  0.188740     48.000000
  0.226488 -0.176157 -0.050331     48.000000
  0.213905 -0.163574 -0.037748     48.000000
  0.201322 -0.150992 -0.025165     48.000000
  0.188740 -0.138409 -0.012583     48.000000
  0.176157 -0.125826 -0.000000     24.000000
  0.000000  0.050331  0.201322     24.000000
  0.239070 -0.188740 -0.037748     48.000000
  0.226488 -0.176157 -0.025165     48.000000
  0.213905 -0.163574 -0.012583     48.000000
  0.201322 -0.150992  0.000000     24.000000
  0.251653 -0.201322 -0.025165     24.000000
  0.239070 -0.188740 -0.012583     48.000000
  0.226488 -0.176157  0.000000     24.000000
  0.251653 -0.201322  0.000000     12.000000
  0.000000  0.075496  0.150992     24.000000
 -0.012583  0.088078  0.163574     48.000000
  0.226488 -0.150992 -0.075496     48.000000
  0.213905 -0.138409 -0.062913     48.000000
  0.201322 -0.125826 -0.050331     24.000000
  0.000000  0.075496  0.176157     24.000000
  0.239070 -0.163574 -0.062913     48.000000
  0.226488 -0.150992 -0.050331     48.000000
  0.213905 -0.138409 -0.037748     48.000000
  0.201322 -0.125826 -0.025165     48.000000
  0.188740 -0.113244 -0.012583     48.000000
  0.176157 -0.100661 -0.000000     24.000000
  0.251653 -0.176157 -0.050331     24.000000
  0.239070 -0.163574 -0.037748     48.000000
  0.226488 -0.150992 -0.025165     48.000000
  0.213905 -0.138409 -0.012583     48.000000
  0.201322 -0.125826  0.000000     24.000000
  0.251653 -0.176157 -0.025165     24.000000
  0.239070 -0.163574 -0.012583     48.000000
  0.226488 -0.150992  0.000000     24.000000
  0.251653 -0.176157  0.000000     12.000000
  0.251653 -0.150992 -0.050331     24.000000
  0.239070 -0.138409 -0.037748     48.000000
  0.226488 -0.125826 -0.025165     24.000000
  0.251653 -0.150992 -0.025165     24.000000
  0.239070 -0.138409 -0.012583     48.000000
  0.226488 -0.125826  0.000000     24.000000
  0.251653 -0.150992  0.000000     12.000000
  0.251653 -0.125826  0.000000      6.000000
 


--------------------------------------------------------------------------------------------------------




 Dimension of arrays:
   k-Points           NKPTS =    256   number of bands    NBANDS=     36
   number of dos      NEDOS =    301   number of ions     NIONS =      1
   non local maximal  LDIM  =      4   non local SUM 2l+1 LMDIM =      8
   total plane-waves  NPLWV =   5832
   max r-space proj   IRMAX =      1   max aug-charges    IRDMAX=  13978
   dimension x,y,z NGX =    18 NGY =   18 NGZ =   18
   dimension x,y,z NGXF=    36 NGYF=   36 NGZF=   36
   support grid    NGXF=    36 NGYF=   36 NGZF=   36
   ions per type =               1
 NGX,Y,Z   is equivalent  to a cutoff of  10.48, 10.48, 10.48 a.u.
 NGXF,Y,Z  is equivalent  to a cutoff of  20.96, 20.96, 20.96 a.u.


 I would recommend the setting:
   dimension x,y,z NGX =    17 NGY =   17 NGZ =   17
 SYSTEM =  Al                                      
 POSCAR =  FCC Aluminum                            

 Startparameter for this run:
   NWRITE =      2    write-flag & timer
   PREC   = accura    medium, high low
   ISTART =      0    job   : 0-new  1-cont  2-samecut
   ICHARG =      2    charge: 1-file 2-atom 10-const
   ISPIN  =      2    spin polarized calculation?
   LNONCOLLINEAR =      F non collinear calculations
   LSORBIT =      F    spin-orbit coupling
   INIWAV =      1    electr: 0-lowe 1-rand  2-diag
   LASPH  =      F    aspherical Exc in radial PAW
   METAGGA=      F    non-selfconsistent MetaGGA calc.

 Electronic Relaxation 1
   ENCUT  =  336.4 eV  24.73 Ry    4.97 a.u.   4.27  4.27  4.27*2*pi/ulx,y,z
   ENINI  =  336.4     initial cutoff
   ENAUG  =  291.1 eV  augmentation charge cutoff
   NELM   =     60;   NELMIN=  2; NELMDL= -5     # of ELM steps 
   EDIFF  = 0.1E-05   stopping-criterion for ELM
   LREAL  =      F    real-space projection
   LCOMPAT=      F    compatible to vasp.4.4
   LREAL_COMPAT= F    compatible to vasp.4.5.1-3
   GGA_COMPAT  = T    GGA compatible to vasp.4.4-vasp.4.6
   LMAXPAW     = -100 max onsite density
   LMAXMIX     =    2 max onsite mixed and CHGCAR
   VOSKOWN=      0    Vosko Wilk Nusair interpolation
   ROPT   =    0.00000
 Ionic relaxation
   EDIFFG = 0.1E-04   stopping-criterion for IOM
   NSW    =     51    number of steps for IOM
   NBLOCK =      1;   KBLOCK =     51    inner block; outer block 
   IBRION =      2    ionic relax: 0-MD 1-quasi-New 2-CG
   NFREE  =      1    steps in history (QN), initial steepest desc. (CG)
   ISIF   =      3    stress and relaxation
   IWAVPR =     11    prediction:  0-non 1-charg 2-wave 3-comb
   ISYM   =      2    0-nonsym 1-usesym 2-fastsym
   LCORR  =      T    Harris-Foulkes like correction to forces

   POTIM  =   0.50    time-step for ionic-motion
   TEIN   =    0.0    initial temperature
   TEBEG  =    0.0;   TEEND  =   0.0 temperature during run
   SMASS  =  -3.00    Nose mass-parameter (am)
   estimated Nose-frequenzy (Omega)   =  0.10E-29 period in steps =****** mass=  -0.186E-27a.u.
   NPACO  =    256;   APACO  = 16.0  distance and # of slots for P.C.
   PSTRESS=    0.0 pullay stress

  Mass of Ions in am
   POMASS =  26.98
  Ionic Valenz
   ZVAL   =   3.00
  Atomic Wigner-Seitz radii
   RWIGS  =  -1.00
   NELECT =       3.0000    total number of electrons
   NUPDOWN=      -1.0000    fix difference up-down

 DOS related values:
   EMIN   =  10.00;   EMAX   =-10.00  energy-range for DOS
   ISMEAR =     1;   SIGMA  =   0.10  broadening in eV -4-tet -1-fermi 0-gaus

 Electronic relaxation 2 (details)
   IALGO  =     38    algorithm
   LDIAG  =      T    sub-space diagonalisation
   IMIX   =      4    mixing-type and parameters
     AMIX     =   0.40;   BMIX     =  1.00
     AMIX_MAG =   1.60;   BMIX_MAG =  1.00
     AMIN     =   0.10
     WC   =   100.;   INIMIX=   1;  MIXPRE=   1

 Intra band minimization:
   WEIMIN = 0.0010     energy-eigenvalue tresh-hold
   EBREAK =  0.69E-08  absolut break condition
   DEPER  =   0.30     relativ break condition  

   TIME   =   0.10     timestep for ELM

  volume/ion in A,a.u.               =      16.47       111.15
  Fermi-wavevector in a.u.,eV,Ry     =   0.927985 11.716729  0.861155

 Second variation
   LSECVAR=     F    do a second variation
 
 Write flags
   LWAVE  =      F    write WAVECAR
   LCHARG =      T    write CHGCAR
   LVTOT  =      F    write LOCPOT, local potential
   LELF   =      F    write electronic localiz. function (ELF)
   LORBIT =     10    0 simple, 1 ext, 2 COOP (PROOUT)


 Dipole corrections
   IDIPOL =      0    1-x, 2-y, 3-z
   LDIPOL =      F    correct potential



--------------------------------------------------------------------------------------------------------


 conjugate gradient relaxation of ions
 charge density will be updated during run
 spin polarized calculation
 Variant of blocked Davidson
 Davidson routine will perform the subspace rotation
 performe sub-space diagonalisation
    after iterative eigenvector-optimisation
 modified Broyden-mixing scheme, WC =      100.0
 initial mixing is a Kerker type mixing with AMIX =  0.4000 and BMIX =      1.0000
 Hartree-type preconditioning will be used
 using additional bands           34
 reciprocal scheme for non local part
 use partial core corrections
 calculate Harris-corrections to forces 
   (improved forces if not selfconsistent)
 use gradient corrections 
 use of overlap-Matrix (Vanderbilt PP)
 Methfessel and Paxton  Order N= 1 SIGMA  =   0.10


--------------------------------------------------------------------------------------------------------


  energy-cutoff  :      336.42
  volume of cell :       16.47
      direct lattice vectors                 reciprocal lattice vectors
     0.000000000  2.019441048  2.019441048    -0.247593264  0.247593264  0.247593264
     2.019441048  0.000000000  2.019441048     0.247593264 -0.247593264  0.247593264
     2.019441048  2.019441048  0.000000000     0.247593264  0.247593264 -0.247593264

  length of vectors
     2.855920918  2.855920918  2.855920918     0.428844112  0.428844112  0.428844112


 
 k-points in units of 2pi/SCALE and weight: KPOINTS File, automatically generated by
   0.00000000  0.00000000  0.00000000       0.000
  -0.01258264  0.01258264  0.01258264       0.001
  -0.02516528  0.02516528  0.02516528       0.001
  -0.03774792  0.03774792  0.03774792       0.001
  -0.05033056  0.05033056  0.05033056       0.001
  -0.06291320  0.06291320  0.06291320       0.001
  -0.07549584  0.07549584  0.07549584       0.001
  -0.08807848  0.08807848  0.08807848       0.001
  -0.10066112  0.10066112  0.10066112       0.001
  -0.11324376  0.11324376  0.11324376       0.001
  -0.12582640  0.12582640  0.12582640       0.001
   0.00000000  0.00000000  0.02516528       0.001
  -0.01258264  0.01258264  0.03774792       0.003
  -0.02516528  0.02516528  0.05033056       0.003
  -0.03774792  0.03774792  0.06291320       0.003
  -0.05033056  0.05033056  0.07549584       0.003
  -0.06291320  0.06291320  0.08807848       0.003
  -0.07549584  0.07549584  0.10066112       0.003
  -0.08807848  0.08807848  0.11324376       0.003
  -0.10066112  0.10066112  0.12582640       0.003
  -0.11324376  0.11324376  0.13840904       0.003
   0.12582640 -0.12582640 -0.10066112       0.003
   0.11324376 -0.11324376 -0.08807848       0.003
   0.10066112 -0.10066112 -0.07549584       0.003
   0.08807848 -0.08807848 -0.06291320       0.003
   0.07549584 -0.07549584 -0.05033056       0.003
   0.06291320 -0.06291320 -0.03774792       0.003
   0.05033056 -0.05033056 -0.02516528       0.003
   0.03774792 -0.03774792 -0.01258264       0.003
   0.02516528 -0.02516528  0.00000000       0.002
   0.00000000  0.00000000  0.05033056       0.001
  -0.01258264  0.01258264  0.06291320       0.003
  -0.02516528  0.02516528  0.07549584       0.003
  -0.03774792  0.03774792  0.08807848       0.003
  -0.05033056  0.05033056  0.10066112       0.003
  -0.06291320  0.06291320  0.11324376       0.003
  -0.07549584  0.07549584  0.12582640       0.003
  -0.08807848  0.08807848  0.13840904       0.003
  -0.10066112  0.10066112  0.15099168       0.003
   0.13840904 -0.13840904 -0.08807848       0.003
   0.12582640 -0.12582640 -0.07549584       0.003
   0.11324376 -0.11324376 -0.06291320       0.003
   0.10066112 -0.10066112 -0.05033056       0.003
   0.08807848 -0.08807848 -0.03774792       0.003
   0.07549584 -0.07549584 -0.02516528       0.003
   0.06291320 -0.06291320 -0.01258264       0.003
   0.05033056 -0.05033056  0.00000000       0.002
   0.00000000  0.00000000  0.07549584       0.001
  -0.01258264  0.01258264  0.08807848       0.003
  -0.02516528  0.02516528  0.10066112       0.003
  -0.03774792  0.03774792  0.11324376       0.003
  -0.05033056  0.05033056  0.12582640       0.003
  -0.06291320  0.06291320  0.13840904       0.003
  -0.07549584  0.07549584  0.15099168       0.003
  -0.08807848  0.08807848  0.16357432       0.003
   0.15099168 -0.15099168 -0.07549584       0.003
   0.13840904 -0.13840904 -0.06291320       0.003
   0.12582640 -0.12582640 -0.05033056       0.003
   0.11324376 -0.11324376 -0.03774792       0.003
   0.10066112 -0.10066112 -0.02516528       0.003
   0.08807848 -0.08807848 -0.01258264       0.003
   0.07549584 -0.07549584  0.00000000       0.002
   0.00000000  0.00000000  0.10066112       0.001
  -0.01258264  0.01258264  0.11324376       0.003
  -0.02516528  0.02516528  0.12582640       0.003
  -0.03774792  0.03774792  0.13840904       0.003
  -0.05033056  0.05033056  0.15099168       0.003
  -0.06291320  0.06291320  0.16357432       0.003
  -0.07549584  0.07549584  0.17615696       0.003
   0.16357432 -0.16357432 -0.06291320       0.003
   0.15099168 -0.15099168 -0.05033056       0.003
   0.13840904 -0.13840904 -0.03774792       0.003
   0.12582640 -0.12582640 -0.02516528       0.003
   0.11324376 -0.11324376 -0.01258264       0.003
   0.10066112 -0.10066112  0.00000000       0.002
   0.00000000  0.00000000  0.12582640       0.001
  -0.01258264  0.01258264  0.13840904       0.003
  -0.02516528  0.02516528  0.15099168       0.003
  -0.03774792  0.03774792  0.16357432       0.003
  -0.05033056  0.05033056  0.17615696       0.003
  -0.06291320  0.06291320  0.18873960       0.003
   0.17615696 -0.17615696 -0.05033056       0.003
   0.16357432 -0.16357432 -0.03774792       0.003
   0.15099168 -0.15099168 -0.02516528       0.003
   0.13840904 -0.13840904 -0.01258264       0.003
   0.12582640 -0.12582640  0.00000000       0.002
   0.00000000  0.00000000  0.15099168       0.001
  -0.01258264  0.01258264  0.16357432       0.003
  -0.02516528  0.02516528  0.17615696       0.003
  -0.03774792  0.03774792  0.18873960       0.003
  -0.05033056  0.05033056  0.20132224       0.003
   0.18873960 -0.18873960 -0.03774792       0.003
   0.17615696 -0.17615696 -0.02516528       0.003
   0.16357432 -0.16357432 -0.01258264       0.003
   0.15099168 -0.15099168  0.00000000       0.002
   0.00000000  0.00000000  0.17615696       0.001
  -0.01258264  0.01258264  0.18873960       0.003
  -0.02516528  0.02516528  0.20132224       0.003
  -0.03774792  0.03774792  0.21390488       0.003
   0.20132224 -0.20132224 -0.02516528       0.003
   0.18873960 -0.18873960 -0.01258264       0.003
   0.17615696 -0.17615696  0.00000000       0.002
   0.00000000  0.00000000  0.20132224       0.001
  -0.01258264  0.01258264  0.21390488       0.003
  -0.02516528  0.02516528  0.22648752       0.003
   0.21390488 -0.21390488 -0.01258264       0.003
   0.20132224 -0.20132224  0.00000000       0.002
   0.00000000  0.00000000  0.22648752       0.001
  -0.01258264  0.01258264  0.23907016       0.003
   0.22648752 -0.22648752  0.00000000       0.002
   0.00000000  0.00000000  0.25165280       0.000
  -0.00000000  0.02516528  0.05033056       0.003
  -0.01258264  0.03774792  0.06291320       0.006
  -0.02516528  0.05033056  0.07549584       0.006
  -0.03774792  0.06291320  0.08807848       0.006
  -0.05033056  0.07549584  0.10066112       0.006
  -0.06291320  0.08807848  0.11324376       0.006
  -0.07549584  0.10066112  0.12582640       0.006
  -0.08807848  0.11324376  0.13840904       0.006
   0.15099168 -0.12582640 -0.10066112       0.003
   0.00000000  0.02516528  0.07549584       0.003
  -0.01258264  0.03774792  0.08807848       0.006
  -0.02516528  0.05033056  0.10066112       0.006
  -0.03774792  0.06291320  0.11324376       0.006
  -0.05033056  0.07549584  0.12582640       0.006
  -0.06291320  0.08807848  0.13840904       0.006
  -0.07549584  0.10066112  0.15099168       0.006
   0.16357432 -0.13840904 -0.08807848       0.006
   0.15099168 -0.12582640 -0.07549584       0.006
   0.13840904 -0.11324376 -0.06291320       0.006
   0.12582640 -0.10066112 -0.05033056       0.006
   0.11324376 -0.08807848 -0.03774792       0.006
   0.10066112 -0.07549584 -0.02516528       0.006
   0.08807848 -0.06291320 -0.01258264       0.006
   0.07549584 -0.05033056  0.00000000       0.003
   0.00000000  0.02516528  0.10066112       0.003
  -0.01258264  0.03774792  0.11324376       0.006
  -0.02516528  0.05033056  0.12582640       0.006
  -0.03774792  0.06291320  0.13840904       0.006
  -0.05033056  0.07549584  0.15099168       0.006
  -0.06291320  0.08807848  0.16357432       0.006
   0.17615696 -0.15099168 -0.07549584       0.006
   0.16357432 -0.13840904 -0.06291320       0.006
   0.15099168 -0.12582640 -0.05033056       0.006
   0.13840904 -0.11324376 -0.03774792       0.006
   0.12582640 -0.10066112 -0.02516528       0.006
   0.11324376 -0.08807848 -0.01258264       0.006
   0.10066112 -0.07549584  0.00000000       0.003
   0.00000000  0.02516528  0.12582640       0.003
  -0.01258264  0.03774792  0.13840904       0.006
  -0.02516528  0.05033056  0.15099168       0.006
  -0.03774792  0.06291320  0.16357432       0.006
  -0.05033056  0.07549584  0.17615696       0.006
   0.18873960 -0.16357432 -0.06291320       0.006
   0.17615696 -0.15099168 -0.05033056       0.006
   0.16357432 -0.13840904 -0.03774792       0.006
   0.15099168 -0.12582640 -0.02516528       0.006
   0.13840904 -0.11324376 -0.01258264       0.006
   0.12582640 -0.10066112  0.00000000       0.003
   0.00000000  0.02516528  0.15099168       0.003
  -0.01258264  0.03774792  0.16357432       0.006
  -0.02516528  0.05033056  0.17615696       0.006
  -0.03774792  0.06291320  0.18873960       0.006
   0.20132224 -0.17615696 -0.05033056       0.006
   0.18873960 -0.16357432 -0.03774792       0.006
   0.17615696 -0.15099168 -0.02516528       0.006
   0.16357432 -0.13840904 -0.01258264       0.006
   0.15099168 -0.12582640  0.00000000       0.003
  -0.00000000  0.02516528  0.17615696       0.003
  -0.01258264  0.03774792  0.18873960       0.006
  -0.02516528  0.05033056  0.20132224       0.006
   0.21390488 -0.18873960 -0.03774792       0.006
   0.20132224 -0.17615696 -0.02516528       0.006
   0.18873960 -0.16357432 -0.01258264       0.006
   0.17615696 -0.15099168  0.00000000       0.003
   0.00000000  0.02516528  0.20132224       0.003
  -0.01258264  0.03774792  0.21390488       0.006
   0.22648752 -0.20132224 -0.02516528       0.006
   0.21390488 -0.18873960 -0.01258264       0.006
   0.20132224 -0.17615696  0.00000000       0.003
   0.00000000  0.02516528  0.22648752       0.003
   0.23907016 -0.21390488 -0.01258264       0.006
   0.22648752 -0.20132224  0.00000000       0.003
   0.25165280 -0.22648752  0.00000000       0.002
   0.00000000  0.05033056  0.10066112       0.003
  -0.01258264  0.06291320  0.11324376       0.006
  -0.02516528  0.07549584  0.12582640       0.006
  -0.03774792  0.08807848  0.13840904       0.006
  -0.05033056  0.10066112  0.15099168       0.006
   0.18873960 -0.13840904 -0.08807848       0.006
   0.17615696 -0.12582640 -0.07549584       0.003
   0.00000000  0.05033056  0.12582640       0.003
  -0.01258264  0.06291320  0.13840904       0.006
  -0.02516528  0.07549584  0.15099168       0.006
  -0.03774792  0.08807848  0.16357432       0.006
   0.20132224 -0.15099168 -0.07549584       0.006
   0.18873960 -0.13840904 -0.06291320       0.006
   0.17615696 -0.12582640 -0.05033056       0.006
   0.16357432 -0.11324376 -0.03774792       0.006
   0.15099168 -0.10066112 -0.02516528       0.006
   0.13840904 -0.08807848 -0.01258264       0.006
   0.12582640 -0.07549584  0.00000000       0.003
  -0.00000000  0.05033056  0.15099168       0.003
  -0.01258264  0.06291320  0.16357432       0.006
  -0.02516528  0.07549584  0.17615696       0.006
   0.21390488 -0.16357432 -0.06291320       0.006
   0.20132224 -0.15099168 -0.05033056       0.006
   0.18873960 -0.13840904 -0.03774792       0.006
   0.17615696 -0.12582640 -0.02516528       0.006
   0.16357432 -0.11324376 -0.01258264       0.006
   0.15099168 -0.10066112  0.00000000       0.003
  -0.00000000  0.05033056  0.17615696       0.003
  -0.01258264  0.06291320  0.18873960       0.006
   0.22648752 -0.17615696 -0.05033056       0.006
   0.21390488 -0.16357432 -0.03774792       0.006
   0.20132224 -0.15099168 -0.02516528       0.006
   0.18873960 -0.13840904 -0.01258264       0.006
   0.17615696 -0.12582640 -0.00000000       0.003
   0.00000000  0.05033056  0.20132224       0.003
   0.23907016 -0.18873960 -0.03774792       0.006
   0.22648752 -0.17615696 -0.02516528       0.006
   0.21390488 -0.16357432 -0.01258264       0.006
   0.20132224 -0.15099168  0.00000000       0.003
   0.25165280 -0.20132224 -0.02516528       0.003
   0.23907016 -0.18873960 -0.01258264       0.006
   0.22648752 -0.17615696  0.00000000       0.003
   0.25165280 -0.20132224  0.00000000       0.002
   0.00000000  0.07549584  0.15099168       0.003
  -0.01258264  0.08807848  0.16357432       0.006
   0.22648752 -0.15099168 -0.07549584       0.006
   0.21390488 -0.13840904 -0.06291320       0.006
   0.20132224 -0.12582640 -0.05033056       0.003
   0.00000000  0.07549584  0.17615696       0.003
   0.23907016 -0.16357432 -0.06291320       0.006
   0.22648752 -0.15099168 -0.05033056       0.006
   0.21390488 -0.13840904 -0.03774792       0.006
   0.20132224 -0.12582640 -0.02516528       0.006
   0.18873960 -0.11324376 -0.01258264       0.006
   0.17615696 -0.10066112 -0.00000000       0.003
   0.25165280 -0.17615696 -0.05033056       0.003
   0.23907016 -0.16357432 -0.03774792       0.006
   0.22648752 -0.15099168 -0.02516528       0.006
   0.21390488 -0.13840904 -0.01258264       0.006
   0.20132224 -0.12582640  0.00000000       0.003
   0.25165280 -0.17615696 -0.02516528       0.003
   0.23907016 -0.16357432 -0.01258264       0.006
   0.22648752 -0.15099168  0.00000000       0.003
   0.25165280 -0.17615696  0.00000000       0.002
   0.25165280 -0.15099168 -0.05033056       0.003
   0.23907016 -0.13840904 -0.03774792       0.006
   0.22648752 -0.12582640 -0.02516528       0.003
   0.25165280 -0.15099168 -0.02516528       0.003
   0.23907016 -0.13840904 -0.01258264       0.006
   0.22648752 -0.12582640  0.00000000       0.003
   0.25165280 -0.15099168  0.00000000       0.002
   0.25165280 -0.12582640  0.00000000       0.001
 
 k-points in reciprocal lattice and weights: KPOINTS File, automatically generated by
   0.00000000  0.00000000  0.00000000       0.000
   0.05000000  0.00000000  0.00000000       0.001
   0.10000000  0.00000000  0.00000000       0.001
   0.15000000  0.00000000  0.00000000       0.001
   0.20000000  0.00000000  0.00000000       0.001
   0.25000000  0.00000000  0.00000000       0.001
   0.30000000  0.00000000  0.00000000       0.001
   0.35000000  0.00000000  0.00000000       0.001
   0.40000000  0.00000000  0.00000000       0.001
   0.45000000  0.00000000  0.00000000       0.001
   0.50000000  0.00000000  0.00000000       0.001
   0.05000000  0.05000000  0.00000000       0.001
   0.10000000  0.05000000  0.00000000       0.003
   0.15000000  0.05000000  0.00000000       0.003
   0.20000000  0.05000000  0.00000000       0.003
   0.25000000  0.05000000  0.00000000       0.003
   0.30000000  0.05000000  0.00000000       0.003
   0.35000000  0.05000000  0.00000000       0.003
   0.40000000  0.05000000  0.00000000       0.003
   0.45000000  0.05000000  0.00000000       0.003
   0.50000000  0.05000000  0.00000000       0.003
  -0.45000000  0.05000000  0.00000000       0.003
  -0.40000000  0.05000000  0.00000000       0.003
  -0.35000000  0.05000000  0.00000000       0.003
  -0.30000000  0.05000000  0.00000000       0.003
  -0.25000000  0.05000000  0.00000000       0.003
  -0.20000000  0.05000000  0.00000000       0.003
  -0.15000000  0.05000000  0.00000000       0.003
  -0.10000000  0.05000000  0.00000000       0.003
  -0.05000000  0.05000000  0.00000000       0.002
   0.10000000  0.10000000  0.00000000       0.001
   0.15000000  0.10000000  0.00000000       0.003
   0.20000000  0.10000000  0.00000000       0.003
   0.25000000  0.10000000  0.00000000       0.003
   0.30000000  0.10000000  0.00000000       0.003
   0.35000000  0.10000000  0.00000000       0.003
   0.40000000  0.10000000  0.00000000       0.003
   0.45000000  0.10000000  0.00000000       0.003
   0.50000000  0.10000000  0.00000000       0.003
  -0.45000000  0.10000000  0.00000000       0.003
  -0.40000000  0.10000000  0.00000000       0.003
  -0.35000000  0.10000000  0.00000000       0.003
  -0.30000000  0.10000000  0.00000000       0.003
  -0.25000000  0.10000000  0.00000000       0.003
  -0.20000000  0.10000000  0.00000000       0.003
  -0.15000000  0.10000000  0.00000000       0.003
  -0.10000000  0.10000000  0.00000000       0.002
   0.15000000  0.15000000  0.00000000       0.001
   0.20000000  0.15000000  0.00000000       0.003
   0.25000000  0.15000000  0.00000000       0.003
   0.30000000  0.15000000  0.00000000       0.003
   0.35000000  0.15000000  0.00000000       0.003
   0.40000000  0.15000000  0.00000000       0.003
   0.45000000  0.15000000  0.00000000       0.003
   0.50000000  0.15000000  0.00000000       0.003
  -0.45000000  0.15000000  0.00000000       0.003
  -0.40000000  0.15000000  0.00000000       0.003
  -0.35000000  0.15000000  0.00000000       0.003
  -0.30000000  0.15000000  0.00000000       0.003
  -0.25000000  0.15000000  0.00000000       0.003
  -0.20000000  0.15000000  0.00000000       0.003
  -0.15000000  0.15000000  0.00000000       0.002
   0.20000000  0.20000000  0.00000000       0.001
   0.25000000  0.20000000  0.00000000       0.003
   0.30000000  0.20000000  0.00000000       0.003
   0.35000000  0.20000000  0.00000000       0.003
   0.40000000  0.20000000  0.00000000       0.003
   0.45000000  0.20000000  0.00000000       0.003
   0.50000000  0.20000000  0.00000000       0.003
  -0.45000000  0.20000000  0.00000000       0.003
  -0.40000000  0.20000000  0.00000000       0.003
  -0.35000000  0.20000000  0.00000000       0.003
  -0.30000000  0.20000000  0.00000000       0.003
  -0.25000000  0.20000000  0.00000000       0.003
  -0.20000000  0.20000000  0.00000000       0.002
   0.25000000  0.25000000  0.00000000       0.001
   0.30000000  0.25000000  0.00000000       0.003
   0.35000000  0.25000000  0.00000000       0.003
   0.40000000  0.25000000  0.00000000       0.003
   0.45000000  0.25000000  0.00000000       0.003
   0.50000000  0.25000000  0.00000000       0.003
  -0.45000000  0.25000000  0.00000000       0.003
  -0.40000000  0.25000000  0.00000000       0.003
  -0.35000000  0.25000000  0.00000000       0.003
  -0.30000000  0.25000000  0.00000000       0.003
  -0.25000000  0.25000000  0.00000000       0.002
   0.30000000  0.30000000  0.00000000       0.001
   0.35000000  0.30000000  0.00000000       0.003
   0.40000000  0.30000000  0.00000000       0.003
   0.45000000  0.30000000  0.00000000       0.003
   0.50000000  0.30000000  0.00000000       0.003
  -0.45000000  0.30000000  0.00000000       0.003
  -0.40000000  0.30000000  0.00000000       0.003
  -0.35000000  0.30000000  0.00000000       0.003
  -0.30000000  0.30000000  0.00000000       0.002
   0.35000000  0.35000000  0.00000000       0.001
   0.40000000  0.35000000  0.00000000       0.003
   0.45000000  0.35000000  0.00000000       0.003
   0.50000000  0.35000000  0.00000000       0.003
  -0.45000000  0.35000000  0.00000000       0.003
  -0.40000000  0.35000000  0.00000000       0.003
  -0.35000000  0.35000000  0.00000000       0.002
   0.40000000  0.40000000  0.00000000       0.001
   0.45000000  0.40000000  0.00000000       0.003
   0.50000000  0.40000000  0.00000000       0.003
  -0.45000000  0.40000000  0.00000000       0.003
  -0.40000000  0.40000000  0.00000000       0.002
   0.45000000  0.45000000  0.00000000       0.001
   0.50000000  0.45000000  0.00000000       0.003
  -0.45000000  0.45000000  0.00000000       0.002
   0.50000000  0.50000000  0.00000000       0.000
   0.15000000  0.10000000  0.05000000       0.003
   0.20000000  0.10000000  0.05000000       0.006
   0.25000000  0.10000000  0.05000000       0.006
   0.30000000  0.10000000  0.05000000       0.006
   0.35000000  0.10000000  0.05000000       0.006
   0.40000000  0.10000000  0.05000000       0.006
   0.45000000  0.10000000  0.05000000       0.006
   0.50000000  0.10000000  0.05000000       0.006
  -0.45000000  0.10000000  0.05000000       0.003
   0.20000000  0.15000000  0.05000000       0.003
   0.25000000  0.15000000  0.05000000       0.006
   0.30000000  0.15000000  0.05000000       0.006
   0.35000000  0.15000000  0.05000000       0.006
   0.40000000  0.15000000  0.05000000       0.006
   0.45000000  0.15000000  0.05000000       0.006
   0.50000000  0.15000000  0.05000000       0.006
  -0.45000000  0.15000000  0.05000000       0.006
  -0.40000000  0.15000000  0.05000000       0.006
  -0.35000000  0.15000000  0.05000000       0.006
  -0.30000000  0.15000000  0.05000000       0.006
  -0.25000000  0.15000000  0.05000000       0.006
  -0.20000000  0.15000000  0.05000000       0.006
  -0.15000000  0.15000000  0.05000000       0.006
  -0.10000000  0.15000000  0.05000000       0.003
   0.25000000  0.20000000  0.05000000       0.003
   0.30000000  0.20000000  0.05000000       0.006
   0.35000000  0.20000000  0.05000000       0.006
   0.40000000  0.20000000  0.05000000       0.006
   0.45000000  0.20000000  0.05000000       0.006
   0.50000000  0.20000000  0.05000000       0.006
  -0.45000000  0.20000000  0.05000000       0.006
  -0.40000000  0.20000000  0.05000000       0.006
  -0.35000000  0.20000000  0.05000000       0.006
  -0.30000000  0.20000000  0.05000000       0.006
  -0.25000000  0.20000000  0.05000000       0.006
  -0.20000000  0.20000000  0.05000000       0.006
  -0.15000000  0.20000000  0.05000000       0.003
   0.30000000  0.25000000  0.05000000       0.003
   0.35000000  0.25000000  0.05000000       0.006
   0.40000000  0.25000000  0.05000000       0.006
   0.45000000  0.25000000  0.05000000       0.006
   0.50000000  0.25000000  0.05000000       0.006
  -0.45000000  0.25000000  0.05000000       0.006
  -0.40000000  0.25000000  0.05000000       0.006
  -0.35000000  0.25000000  0.05000000       0.006
  -0.30000000  0.25000000  0.05000000       0.006
  -0.25000000  0.25000000  0.05000000       0.006
  -0.20000000  0.25000000  0.05000000       0.003
   0.35000000  0.30000000  0.05000000       0.003
   0.40000000  0.30000000  0.05000000       0.006
   0.45000000  0.30000000  0.05000000       0.006
   0.50000000  0.30000000  0.05000000       0.006
  -0.45000000  0.30000000  0.05000000       0.006
  -0.40000000  0.30000000  0.05000000       0.006
  -0.35000000  0.30000000  0.05000000       0.006
  -0.30000000  0.30000000  0.05000000       0.006
  -0.25000000  0.30000000  0.05000000       0.003
   0.40000000  0.35000000  0.05000000       0.003
   0.45000000  0.35000000  0.05000000       0.006
   0.50000000  0.35000000  0.05000000       0.006
  -0.45000000  0.35000000  0.05000000       0.006
  -0.40000000  0.35000000  0.05000000       0.006
  -0.35000000  0.35000000  0.05000000       0.006
  -0.30000000  0.35000000  0.05000000       0.003
   0.45000000  0.40000000  0.05000000       0.003
   0.50000000  0.40000000  0.05000000       0.006
  -0.45000000  0.40000000  0.05000000       0.006
  -0.40000000  0.40000000  0.05000000       0.006
  -0.35000000  0.40000000  0.05000000       0.003
   0.50000000  0.45000000  0.05000000       0.003
  -0.45000000  0.45000000  0.05000000       0.006
  -0.40000000  0.45000000  0.05000000       0.003
  -0.45000000  0.50000000  0.05000000       0.002
   0.30000000  0.20000000  0.10000000       0.003
   0.35000000  0.20000000  0.10000000       0.006
   0.40000000  0.20000000  0.10000000       0.006
   0.45000000  0.20000000  0.10000000       0.006
   0.50000000  0.20000000  0.10000000       0.006
  -0.45000000  0.20000000  0.10000000       0.006
  -0.40000000  0.20000000  0.10000000       0.003
   0.35000000  0.25000000  0.10000000       0.003
   0.40000000  0.25000000  0.10000000       0.006
   0.45000000  0.25000000  0.10000000       0.006
   0.50000000  0.25000000  0.10000000       0.006
  -0.45000000  0.25000000  0.10000000       0.006
  -0.40000000  0.25000000  0.10000000       0.006
  -0.35000000  0.25000000  0.10000000       0.006
  -0.30000000  0.25000000  0.10000000       0.006
  -0.25000000  0.25000000  0.10000000       0.006
  -0.20000000  0.25000000  0.10000000       0.006
  -0.15000000  0.25000000  0.10000000       0.003
   0.40000000  0.30000000  0.10000000       0.003
   0.45000000  0.30000000  0.10000000       0.006
   0.50000000  0.30000000  0.10000000       0.006
  -0.45000000  0.30000000  0.10000000       0.006
  -0.40000000  0.30000000  0.10000000       0.006
  -0.35000000  0.30000000  0.10000000       0.006
  -0.30000000  0.30000000  0.10000000       0.006
  -0.25000000  0.30000000  0.10000000       0.006
  -0.20000000  0.30000000  0.10000000       0.003
   0.45000000  0.35000000  0.10000000       0.003
   0.50000000  0.35000000  0.10000000       0.006
  -0.45000000  0.35000000  0.10000000       0.006
  -0.40000000  0.35000000  0.10000000       0.006
  -0.35000000  0.35000000  0.10000000       0.006
  -0.30000000  0.35000000  0.10000000       0.006
  -0.25000000  0.35000000  0.10000000       0.003
   0.50000000  0.40000000  0.10000000       0.003
  -0.45000000  0.40000000  0.10000000       0.006
  -0.40000000  0.40000000  0.10000000       0.006
  -0.35000000  0.40000000  0.10000000       0.006
  -0.30000000  0.40000000  0.10000000       0.003
  -0.45000000  0.45000000  0.10000000       0.003
  -0.40000000  0.45000000  0.10000000       0.006
  -0.35000000  0.45000000  0.10000000       0.003
  -0.40000000  0.50000000  0.10000000       0.002
   0.45000000  0.30000000  0.15000000       0.003
   0.50000000  0.30000000  0.15000000       0.006
  -0.45000000  0.30000000  0.15000000       0.006
  -0.40000000  0.30000000  0.15000000       0.006
  -0.35000000  0.30000000  0.15000000       0.003
   0.50000000  0.35000000  0.15000000       0.003
  -0.45000000  0.35000000  0.15000000       0.006
  -0.40000000  0.35000000  0.15000000       0.006
  -0.35000000  0.35000000  0.15000000       0.006
  -0.30000000  0.35000000  0.15000000       0.006
  -0.25000000  0.35000000  0.15000000       0.006
  -0.20000000  0.35000000  0.15000000       0.003
  -0.45000000  0.40000000  0.15000000       0.003
  -0.40000000  0.40000000  0.15000000       0.006
  -0.35000000  0.40000000  0.15000000       0.006
  -0.30000000  0.40000000  0.15000000       0.006
  -0.25000000  0.40000000  0.15000000       0.003
  -0.40000000  0.45000000  0.15000000       0.003
  -0.35000000  0.45000000  0.15000000       0.006
  -0.30000000  0.45000000  0.15000000       0.003
  -0.35000000  0.50000000  0.15000000       0.002
  -0.40000000  0.40000000  0.20000000       0.003
  -0.35000000  0.40000000  0.20000000       0.006
  -0.30000000  0.40000000  0.20000000       0.003
  -0.35000000  0.45000000  0.20000000       0.003
  -0.30000000  0.45000000  0.20000000       0.006
  -0.25000000  0.45000000  0.20000000       0.003
  -0.30000000  0.50000000  0.20000000       0.002
  -0.25000000  0.50000000  0.25000000       0.001
 
 position of ions in fractional coordinates (direct lattice) 
   0.00000000  0.00000000  0.00000000
 
 position of ions in cartesian coordinates  (Angst):
   0.00000000  0.00000000  0.00000000
 


--------------------------------------------------------------------------------------------------------


 k-point  1 :  0.00000.00000.0000  plane waves:    259
 k-point  2 :  0.05000.00000.0000  plane waves:    250
 k-point  3 :  0.10000.00000.0000  plane waves:    244
 k-point  4 :  0.15000.00000.0000  plane waves:    232
 k-point  5 :  0.20000.00000.0000  plane waves:    232
 k-point  6 :  0.25000.00000.0000  plane waves:    232
 k-point  7 :  0.30000.00000.0000  plane waves:    229
 k-point  8 :  0.35000.00000.0000  plane waves:    232
 k-point  9 :  0.40000.00000.0000  plane waves:    235
 k-point 10 :  0.45000.00000.0000  plane waves:    229
 k-point 11 :  0.50000.00000.0000  plane waves:    228
 k-point 12 :  0.05000.05000.0000  plane waves:    250
 k-point 13 :  0.10000.05000.0000  plane waves:    239
 k-point 14 :  0.15000.05000.0000  plane waves:    234
 k-point 15 :  0.20000.05000.0000  plane waves:    232
 k-point 16 :  0.25000.05000.0000  plane waves:    230
 k-point 17 :  0.30000.05000.0000  plane waves:    232
 k-point 18 :  0.35000.05000.0000  plane waves:    230
 k-point 19 :  0.40000.05000.0000  plane waves:    233
 k-point 20 :  0.45000.05000.0000  plane waves:    235
 k-point 21 :  0.50000.05000.0000  plane waves:    235
 k-point 22 :  -.45000.05000.0000  plane waves:    233
 k-point 23 :  -.40000.05000.0000  plane waves:    230
 k-point 24 :  -.35000.05000.0000  plane waves:    230
 k-point 25 :  -.30000.05000.0000  plane waves:    231
 k-point 26 :  -.25000.05000.0000  plane waves:    231
 k-point 27 :  -.20000.05000.0000  plane waves:    234
 k-point 28 :  -.15000.05000.0000  plane waves:    232
 k-point 29 :  -.10000.05000.0000  plane waves:    236
 k-point 30 :  -.05000.05000.0000  plane waves:    247
 k-point 31 :  0.10000.10000.0000  plane waves:    238
 k-point 32 :  0.15000.10000.0000  plane waves:    233
 k-point 33 :  0.20000.10000.0000  plane waves:    232
 k-point 34 :  0.25000.10000.0000  plane waves:    230
 k-point 35 :  0.30000.10000.0000  plane waves:    230
 k-point 36 :  0.35000.10000.0000  plane waves:    233
 k-point 37 :  0.40000.10000.0000  plane waves:    235
 k-point 38 :  0.45000.10000.0000  plane waves:    235
 k-point 39 :  0.50000.10000.0000  plane waves:    233
 k-point 40 :  -.45000.10000.0000  plane waves:    233
 k-point 41 :  -.40000.10000.0000  plane waves:    230
 k-point 42 :  -.35000.10000.0000  plane waves:    232
 k-point 43 :  -.30000.10000.0000  plane waves:    231
 k-point 44 :  -.25000.10000.0000  plane waves:    229
 k-point 45 :  -.20000.10000.0000  plane waves:    227
 k-point 46 :  -.15000.10000.0000  plane waves:    230
 k-point 47 :  -.10000.10000.0000  plane waves:    231
 k-point 48 :  0.15000.15000.0000  plane waves:    230
 k-point 49 :  0.20000.15000.0000  plane waves:    230
 k-point 50 :  0.25000.15000.0000  plane waves:    233
 k-point 51 :  0.30000.15000.0000  plane waves:    226
 k-point 52 :  0.35000.15000.0000  plane waves:    229
 k-point 53 :  0.40000.15000.0000  plane waves:    234
 k-point 54 :  0.45000.15000.0000  plane waves:    233
 k-point 55 :  0.50000.15000.0000  plane waves:    235
 k-point 56 :  -.45000.15000.0000  plane waves:    236
 k-point 57 :  -.40000.15000.0000  plane waves:    236
 k-point 58 :  -.35000.15000.0000  plane waves:    232
 k-point 59 :  -.30000.15000.0000  plane waves:    227
 k-point 60 :  -.25000.15000.0000  plane waves:    229
 k-point 61 :  -.20000.15000.0000  plane waves:    229
 k-point 62 :  -.15000.15000.0000  plane waves:    232
 k-point 63 :  0.20000.20000.0000  plane waves:    234
 k-point 64 :  0.25000.20000.0000  plane waves:    230
 k-point 65 :  0.30000.20000.0000  plane waves:    226
 k-point 66 :  0.35000.20000.0000  plane waves:    227
 k-point 67 :  0.40000.20000.0000  plane waves:    228
 k-point 68 :  0.45000.20000.0000  plane waves:    231
 k-point 69 :  0.50000.20000.0000  plane waves:    235
 k-point 70 :  -.45000.20000.0000  plane waves:    237
 k-point 71 :  -.40000.20000.0000  plane waves:    238
 k-point 72 :  -.35000.20000.0000  plane waves:    236
 k-point 73 :  -.30000.20000.0000  plane waves:    229
 k-point 74 :  -.25000.20000.0000  plane waves:    227
 k-point 75 :  -.20000.20000.0000  plane waves:    228
 k-point 76 :  0.25000.25000.0000  plane waves:    234
 k-point 77 :  0.30000.25000.0000  plane waves:    226
 k-point 78 :  0.35000.25000.0000  plane waves:    228
 k-point 79 :  0.40000.25000.0000  plane waves:    228
 k-point 80 :  0.45000.25000.0000  plane waves:    230
 k-point 81 :  0.50000.25000.0000  plane waves:    231
 k-point 82 :  -.45000.25000.0000  plane waves:    232
 k-point 83 :  -.40000.25000.0000  plane waves:    233
 k-point 84 :  -.35000.25000.0000  plane waves:    232
 k-point 85 :  -.30000.25000.0000  plane waves:    231
 k-point 86 :  -.25000.25000.0000  plane waves:    222
 k-point 87 :  0.30000.30000.0000  plane waves:    222
 k-point 88 :  0.35000.30000.0000  plane waves:    224
 k-point 89 :  0.40000.30000.0000  plane waves:    226
 k-point 90 :  0.45000.30000.0000  plane waves:    228
 k-point 91 :  0.50000.30000.0000  plane waves:    228
 k-point 92 :  -.45000.30000.0000  plane waves:    228
 k-point 93 :  -.40000.30000.0000  plane waves:    227
 k-point 94 :  -.35000.30000.0000  plane waves:    230
 k-point 95 :  -.30000.30000.0000  plane waves:    228
 k-point 96 :  0.35000.35000.0000  plane waves:    222
 k-point 97 :  0.40000.35000.0000  plane waves:    229
 k-point 98 :  0.45000.35000.0000  plane waves:    231
 k-point 99 :  0.50000.35000.0000  plane waves:    232
 k-point ** :  -.45000.35000.0000  plane waves:    227
 k-point ** :  -.40000.35000.0000  plane waves:    224
 k-point ** :  -.35000.35000.0000  plane waves:    230
 k-point ** :  0.40000.40000.0000  plane waves:    226
 k-point ** :  0.45000.40000.0000  plane waves:    228
 k-point ** :  0.50000.40000.0000  plane waves:    229
 k-point ** :  -.45000.40000.0000  plane waves:    230
 k-point ** :  -.40000.40000.0000  plane waves:    228
 k-point ** :  0.45000.45000.0000  plane waves:    222
 k-point ** :  0.50000.45000.0000  plane waves:    224
 k-point ** :  -.45000.45000.0000  plane waves:    230
 k-point ** :  0.50000.50000.0000  plane waves:    222
 k-point ** :  0.15000.10000.0500  plane waves:    239
 k-point ** :  0.20000.10000.0500  plane waves:    230
 k-point ** :  0.25000.10000.0500  plane waves:    229
 k-point ** :  0.30000.10000.0500  plane waves:    230
 k-point ** :  0.35000.10000.0500  plane waves:    233
 k-point ** :  0.40000.10000.0500  plane waves:    232
 k-point ** :  0.45000.10000.0500  plane waves:    232
 k-point ** :  0.50000.10000.0500  plane waves:    234
 k-point ** :  -.45000.10000.0500  plane waves:    234
 k-point ** :  0.20000.15000.0500  plane waves:    230
 k-point ** :  0.25000.15000.0500  plane waves:    232
 k-point ** :  0.30000.15000.0500  plane waves:    230
 k-point ** :  0.35000.15000.0500  plane waves:    230
 k-point ** :  0.40000.15000.0500  plane waves:    233
 k-point ** :  0.45000.15000.0500  plane waves:    234
 k-point ** :  0.50000.15000.0500  plane waves:    233
 k-point ** :  -.45000.15000.0500  plane waves:    233
 k-point ** :  -.40000.15000.0500  plane waves:    232
 k-point ** :  -.35000.15000.0500  plane waves:    234
 k-point ** :  -.30000.15000.0500  plane waves:    234
 k-point ** :  -.25000.15000.0500  plane waves:    230
 k-point ** :  -.20000.15000.0500  plane waves:    229
 k-point ** :  -.15000.15000.0500  plane waves:    228
 k-point ** :  -.10000.15000.0500  plane waves:    226
 k-point ** :  0.25000.20000.0500  plane waves:    229
 k-point ** :  0.30000.20000.0500  plane waves:    229
 k-point ** :  0.35000.20000.0500  plane waves:    226
 k-point ** :  0.40000.20000.0500  plane waves:    228
 k-point ** :  0.45000.20000.0500  plane waves:    230
 k-point ** :  0.50000.20000.0500  plane waves:    233
 k-point ** :  -.45000.20000.0500  plane waves:    234
 k-point ** :  -.40000.20000.0500  plane waves:    233
 k-point ** :  -.35000.20000.0500  plane waves:    234
 k-point ** :  -.30000.20000.0500  plane waves:    233
 k-point ** :  -.25000.20000.0500  plane waves:    230
 k-point ** :  -.20000.20000.0500  plane waves:    230
 k-point ** :  -.15000.20000.0500  plane waves:    228
 k-point ** :  0.30000.25000.0500  plane waves:    228
 k-point ** :  0.35000.25000.0500  plane waves:    227
 k-point ** :  0.40000.25000.0500  plane waves:    229
 k-point ** :  0.45000.25000.0500  plane waves:    229
 k-point ** :  0.50000.25000.0500  plane waves:    231
 k-point ** :  -.45000.25000.0500  plane waves:    233
 k-point ** :  -.40000.25000.0500  plane waves:    231
 k-point ** :  -.35000.25000.0500  plane waves:    233
 k-point ** :  -.30000.25000.0500  plane waves:    232
 k-point ** :  -.25000.25000.0500  plane waves:    229
 k-point ** :  -.20000.25000.0500  plane waves:    233
 k-point ** :  0.35000.30000.0500  plane waves:    226
 k-point ** :  0.40000.30000.0500  plane waves:    230
 k-point ** :  0.45000.30000.0500  plane waves:    227
 k-point ** :  0.50000.30000.0500  plane waves:    230
 k-point ** :  -.45000.30000.0500  plane waves:    230
 k-point ** :  -.40000.30000.0500  plane waves:    229
 k-point ** :  -.35000.30000.0500  plane waves:    232
 k-point ** :  -.30000.30000.0500  plane waves:    231
 k-point ** :  -.25000.30000.0500  plane waves:    229
 k-point ** :  0.40000.35000.0500  plane waves:    227
 k-point ** :  0.45000.35000.0500  plane waves:    230
 k-point ** :  0.50000.35000.0500  plane waves:    232
 k-point ** :  -.45000.35000.0500  plane waves:    229
 k-point ** :  -.40000.35000.0500  plane waves:    227
 k-point ** :  -.35000.35000.0500  plane waves:    230
 k-point ** :  -.30000.35000.0500  plane waves:    232
 k-point ** :  0.45000.40000.0500  plane waves:    230
 k-point ** :  0.50000.40000.0500  plane waves:    231
 k-point ** :  -.45000.40000.0500  plane waves:    230
 k-point ** :  -.40000.40000.0500  plane waves:    228
 k-point ** :  -.35000.40000.0500  plane waves:    226
 k-point ** :  0.50000.45000.0500  plane waves:    224
 k-point ** :  -.45000.45000.0500  plane waves:    228
 k-point ** :  -.40000.45000.0500  plane waves:    229
 k-point ** :  -.45000.50000.0500  plane waves:    224
 k-point ** :  0.30000.20000.1000  plane waves:    233
 k-point ** :  0.35000.20000.1000  plane waves:    229
 k-point ** :  0.40000.20000.1000  plane waves:    228
 k-point ** :  0.45000.20000.1000  plane waves:    231
 k-point ** :  0.50000.20000.1000  plane waves:    233
 k-point ** :  -.45000.20000.1000  plane waves:    235
 k-point ** :  -.40000.20000.1000  plane waves:    236
 k-point ** :  0.35000.25000.1000  plane waves:    231
 k-point ** :  0.40000.25000.1000  plane waves:    229
 k-point ** :  0.45000.25000.1000  plane waves:    232
 k-point ** :  0.50000.25000.1000  plane waves:    232
 k-point ** :  -.45000.25000.1000  plane waves:    232
 k-point ** :  -.40000.25000.1000  plane waves:    233
 k-point ** :  -.35000.25000.1000  plane waves:    235
 k-point ** :  -.30000.25000.1000  plane waves:    234
 k-point ** :  -.25000.25000.1000  plane waves:    230
 k-point ** :  -.20000.25000.1000  plane waves:    232
 k-point ** :  -.15000.25000.1000  plane waves:    229
 k-point ** :  0.40000.30000.1000  plane waves:    231
 k-point ** :  0.45000.30000.1000  plane waves:    229
 k-point ** :  0.50000.30000.1000  plane waves:    228
 k-point ** :  -.45000.30000.1000  plane waves:    230
 k-point ** :  -.40000.30000.1000  plane waves:    232
 k-point ** :  -.35000.30000.1000  plane waves:    231
 k-point ** :  -.30000.30000.1000  plane waves:    234
 k-point ** :  -.25000.30000.1000  plane waves:    232
 k-point ** :  -.20000.30000.1000  plane waves:    231
 k-point ** :  0.45000.35000.1000  plane waves:    228
 k-point ** :  0.50000.35000.1000  plane waves:    230
 k-point ** :  -.45000.35000.1000  plane waves:    227
 k-point ** :  -.40000.35000.1000  plane waves:    228
 k-point ** :  -.35000.35000.1000  plane waves:    228
 k-point ** :  -.30000.35000.1000  plane waves:    230
 k-point ** :  -.25000.35000.1000  plane waves:    229
 k-point ** :  0.50000.40000.1000  plane waves:    230
 k-point ** :  -.45000.40000.1000  plane waves:    228
 k-point ** :  -.40000.40000.1000  plane waves:    228
 k-point ** :  -.35000.40000.1000  plane waves:    227
 k-point ** :  -.30000.40000.1000  plane waves:    229
 k-point ** :  -.45000.45000.1000  plane waves:    232
 k-point ** :  -.40000.45000.1000  plane waves:    230
 k-point ** :  -.35000.45000.1000  plane waves:    227
 k-point ** :  -.40000.50000.1000  plane waves:    228
 k-point ** :  0.45000.30000.1500  plane waves:    233
 k-point ** :  0.50000.30000.1500  plane waves:    232
 k-point ** :  -.45000.30000.1500  plane waves:    233
 k-point ** :  -.40000.30000.1500  plane waves:    234
 k-point ** :  -.35000.30000.1500  plane waves:    230
 k-point ** :  0.50000.35000.1500  plane waves:    229
 k-point ** :  -.45000.35000.1500  plane waves:    229
 k-point ** :  -.40000.35000.1500  plane waves:    234
 k-point ** :  -.35000.35000.1500  plane waves:    232
 k-point ** :  -.30000.35000.1500  plane waves:    232
 k-point ** :  -.25000.35000.1500  plane waves:    233
 k-point ** :  -.20000.35000.1500  plane waves:    231
 k-point ** :  -.45000.40000.1500  plane waves:    230
 k-point ** :  -.40000.40000.1500  plane waves:    229
 k-point ** :  -.35000.40000.1500  plane waves:    230
 k-point ** :  -.30000.40000.1500  plane waves:    230
 k-point ** :  -.25000.40000.1500  plane waves:    231
 k-point ** :  -.40000.45000.1500  plane waves:    228
 k-point ** :  -.35000.45000.1500  plane waves:    228
 k-point ** :  -.30000.45000.1500  plane waves:    227
 k-point ** :  -.35000.50000.1500  plane waves:    230
 k-point ** :  -.40000.40000.2000  plane waves:    225
 k-point ** :  -.35000.40000.2000  plane waves:    232
 k-point ** :  -.30000.40000.2000  plane waves:    232
 k-point ** :  -.35000.45000.2000  plane waves:    228
 k-point ** :  -.30000.45000.2000  plane waves:    227
 k-point ** :  -.25000.45000.2000  plane waves:    231
 k-point ** :  -.30000.50000.2000  plane waves:    228
 k-point ** :  -.25000.50000.2500  plane waves:    224

 maximum number of plane-waves:    259
 maximal index in each direction: 
   IXMAX=  4   IYMAX=  4   IZMAX=  4
   IXMIN= -4   IYMIN= -4   IZMIN= -4

 NGX is ok and might be reduce to  18
 NGY is ok and might be reduce to  18
 NGZ is ok and might be reduce to  18
 For storing wavefunctions   68.05 MBYTES are necessary
 For predicting wavefunctions    1.44 MBYTES are necessary
Broyden mixing: mesh for mixing (old mesh)
   NGX =  9   NGY =  9   NGZ =  9
  (NGX  = 36   NGY  = 36   NGZ  = 36)
 gives a total of    729 points
 initial charge density was supplied:
 charge density of overlapping atoms calculated
 number of electron    3.0000000 magnetization    1.0000000
 keeping initial charge density in first step


--------------------------------------------------------------------------------------------------------


 Maximum index for augmentation-charges        13451 (set IRDMAX)


--------------------------------------------------------------------------------------------------------


 First call to EWALD:  gamma=   0.697
 Maximum number of real-space cells 3x 3x 3
 Maximum number of reciprocal cells 3x 3x 3

    FEWALD:  VPU time    0.00: CPU time    0.00


----------------------------------------- Iteration    1(   1)  ---------------------------------------


    POTLOK:  VPU time    0.07: CPU time    0.07
    SETDIJ:  VPU time    0.01: CPU time    0.01
    EDDAV :  VPU time   15.91: CPU time   15.92
    DOS   :  VPU time   -0.00: CPU time   -0.00
    ------------------------------------------
      LOOP:  VPU time   16.03: CPU time   16.04

 eigenvalue-minimisations  : 37860
 total energy-change (2. order) : 0.2039008E+01  (-0.6309784E+02)
 number of electron    3.0000000 magnetization    1.0000000
 augmentation part     3.0000000 magnetization    1.0000000

 Free energy of the ion-electron system (eV)
  ---------------------------------------------------
  alpha Z        PSCENC =        -0.20392110
  Ewald energy   TEWEN  =       -73.55863929
  -1/2 Hartree   DENC   =        -0.10074863
  -V(xc)+E(xc)   XCENC  =       -26.08668243
  PAW double counting   =        35.50090414       -3.54792879
  entropy T*S    EENTRO =        -0.00006498
  eigenvalues    EBANDS =        16.49806112
  atomic energy  EATOM  =        53.53802810
  ---------------------------------------------------
  free energy    TOTEN  =         2.03900815 eV

  energy without entropy =        2.03907313  energy(sigma->0) =        2.03902981


--------------------------------------------------------------------------------------------------------




----------------------------------------- Iteration    1(   2)  ---------------------------------------


    EDDAV :  VPU time   18.79: CPU time   18.80
    DOS   :  VPU time   -0.00: CPU time   -0.00
    ------------------------------------------
      LOOP:  VPU time   18.84: CPU time   18.84

 eigenvalue-minimisations  : 47604
 total energy-change (2. order) :-0.5504345E+01  (-0.5279387E+01)
 number of electron    3.0000000 magnetization    1.0000000
 augmentation part     3.0000000 magnetization    1.0000000

 Free energy of the ion-electron system (eV)
  ---------------------------------------------------
  alpha Z        PSCENC =        -0.20392110
  Ewald energy   TEWEN  =       -73.55863929
  -1/2 Hartree   DENC   =        -0.10074863
  -V(xc)+E(xc)   XCENC  =       -26.08668243
  PAW double counting   =        35.50090414       -3.54792879
  entropy T*S    EENTRO =         0.00016143
  eigenvalues    EBANDS =        10.99348926
  atomic energy  EATOM  =        53.53802810
  ---------------------------------------------------
  free energy    TOTEN  =        -3.46533730 eV

  energy without entropy =       -3.46549873  energy(sigma->0) =       -3.46539111


--------------------------------------------------------------------------------------------------------




----------------------------------------- Iteration    1(   3)  ---------------------------------------


    EDDAV :  VPU time   17.37: CPU time   17.37
    DOS   :  VPU time   -0.00: CPU time   -0.00
    ------------------------------------------
      LOOP:  VPU time   17.41: CPU time   17.41

 eigenvalue-minimisations  : 43120
 total energy-change (2. order) :-0.5856526E-01  (-0.5828432E-01)
 number of electron    3.0000000 magnetization    1.0000000
 augmentation part     3.0000000 magnetization    1.0000000

 Free energy of the ion-electron system (eV)
  ---------------------------------------------------
  alpha Z        PSCENC =        -0.20392110
  Ewald energy   TEWEN  =       -73.55863929
  -1/2 Hartree   DENC   =        -0.10074863
  -V(xc)+E(xc)   XCENC  =       -26.08668243
  PAW double counting   =        35.50090414       -3.54792879
  entropy T*S    EENTRO =         0.00009297
  eigenvalues    EBANDS =        10.93499245
  atomic energy  EATOM  =        53.53802810
  ---------------------------------------------------
[...]
      8      30.1218      0.00000
      9      33.3448      0.00000
     10      36.7021      0.00000
     11      39.3345      0.00000
     12      40.0784      0.00000
     13      44.1012      0.00000
     14      45.0552      0.00000
     15      47.9863      0.00000
     16      50.2079      0.00000
     17      51.2121      0.00000
     18      51.7608      0.00000
     19      53.7861      0.00000
     20      55.8623      0.00000
     21      56.3297      0.00000
     22      57.0939      0.00000
     23      60.9656      0.00000
     24      62.3565      0.00000
     25      63.0295      0.00000
     26      63.6425      0.00000
     27      64.0243      0.00000
     28      65.3289      0.00000
     29      66.6819      0.00000
     30      67.1003      0.00000
     31      69.1906      0.00000
     32      70.6337      0.00000
     33      76.1085      0.00000
     34      79.9789      0.00000
     35      80.0616      0.00000
     36      87.3662      0.00000

 k-point 250 :      -0.3500    0.4000    0.2000
  band No.  band energies     occupation 
      1       5.0147      1.00000
      2       7.4275      1.00000
      3       9.5730     -0.00000
      4      10.5417     -0.00000
      5      22.5005      0.00000
      6      23.4351      0.00000
      7      24.8385      0.00000
      8      28.4462      0.00000
      9      33.8641      0.00000
     10      37.2092      0.00000
     11      40.1992      0.00000
     12      41.5123      0.00000
     13      43.0336      0.00000
     14      45.1948      0.00000
     15      46.9991      0.00000
     16      49.3711      0.00000
     17      51.7165      0.00000
     18      52.6927      0.00000
     19      55.5684      0.00000
     20      55.7538      0.00000
     21      56.4991      0.00000
     22      57.0604      0.00000
     23      59.5222      0.00000
     24      61.5916      0.00000
     25      62.2367      0.00000
     26      62.7061      0.00000
     27      63.7719      0.00000
     28      65.0703      0.00000
     29      65.8228      0.00000
     30      66.7118      0.00000
     31      67.7535      0.00000
     32      71.6989      0.00000
     33      74.7912      0.00000
     34      78.5418      0.00000
     35      81.5127      0.00000
     36      86.0332      0.00000

 k-point 251 :      -0.3000    0.4000    0.2000
  band No.  band energies     occupation 
      1       6.0769      1.00000
      2       6.3214      1.00000
      3       9.6208     -0.00000
      4      10.2945     -0.00000
      5      22.7877      0.00000
      6      23.2345      0.00000
      7      25.7905      0.00000
      8      27.2717      0.00000
      9      34.0452      0.00000
     10      37.2917      0.00000
     11      41.0163      0.00000
     12      41.6853      0.00000
     13      43.6609      0.00000
     14      44.1731      0.00000
     15      46.6166      0.00000
     16      48.7030      0.00000
     17      52.1177      0.00000
     18      53.0993      0.00000
     19      56.0674      0.00000
     20      56.5710      0.00000
     21      56.8251      0.00000
     22      57.9001      0.00000
     23      59.1718      0.00000
     24      59.2185      0.00000
     25      62.2804      0.00000
     26      62.3200      0.00000
     27      63.6837      0.00000
     28      65.1918      0.00000
     29      65.6534      0.00000
     30      66.6586      0.00000
     31      67.3316      0.00000
     32      73.1131      0.00000
     33      73.3791      0.00000
     34      77.9663      0.00000
     35      82.5178      0.00000
     36      85.0653      0.00000

 k-point 252 :      -0.3500    0.4500    0.2000
  band No.  band energies     occupation 
      1       5.3449      1.00000
      2       8.1724      0.00077
      3       8.8980     -0.00000
      4       9.8984     -0.00000
      5      21.5638      0.00000
      6      23.1389      0.00000
      7      25.5507      0.00000
      8      28.7634      0.00000
      9      34.7041      0.00000
     10      38.8247      0.00000
     11      41.4633      0.00000
     12      41.4887      0.00000
     13      43.1848      0.00000
     14      43.7260      0.00000
     15      46.0380      0.00000
     16      47.9425      0.00000
     17      51.4008      0.00000
     18      53.1955      0.00000
     19      55.0348      0.00000
     20      55.6538      0.00000
     21      56.5165      0.00000
     22      57.2289      0.00000
     23      60.7895      0.00000
     24      61.0808      0.00000
     25      61.3517      0.00000
     26      63.0931      0.00000
     27      63.2599      0.00000
     28      65.2369      0.00000
     29      65.8099      0.00000
     30      67.0673      0.00000
     31      68.3294      0.00000
     32      72.6372      0.00000
     33      75.5433      0.00000
     34      79.8015      0.00000
     35      79.8625      0.00000
     36      84.1204      0.00000

 k-point 253 :      -0.3000    0.4500    0.2000
  band No.  band energies     occupation 
      1       6.4045      1.00000
      2       7.2488      1.00000
      3       8.5508     -0.00000
      4       9.7050     -0.00000
      5      22.3637      0.00000
      6      24.2159      0.00000
      7      25.0012      0.00000
      8      27.2116      0.00000
      9      34.9064      0.00000
     10      39.1702      0.00000
     11      41.9723      0.00000
     12      42.5158      0.00000
     13      42.9561      0.00000
     14      43.6884      0.00000
     15      45.0964      0.00000
     16      46.6331      0.00000
     17      52.3295      0.00000
     18      53.6605      0.00000
     19      55.8128      0.00000
     20      56.3384      0.00000
     21      57.5699      0.00000
     22      58.3048      0.00000
     23      59.9013      0.00000
     24      60.5624      0.00000
     25      61.1643      0.00000
     26      61.6337      0.00000
     27      62.8337      0.00000
     28      64.5385      0.00000
     29      66.2782      0.00000
     30      66.4392      0.00000
     31      67.4272      0.00000
     32      73.5047      0.00000
     33      74.7458      0.00000
     34      78.9083      0.00000
     35      80.7887      0.00000
     36      83.0643      0.00000

 k-point 254 :      -0.2500    0.4500    0.2000
  band No.  band energies     occupation 
      1       6.1030      1.00000
      2       7.2546      1.00000
      3       8.6398     -0.00000
      4       9.9924     -0.00000
      5      22.8942      0.00000
      6      23.9528      0.00000
      7      25.0409      0.00000
      8      26.9746      0.00000
      9      34.5960      0.00000
     10      38.6266      0.00000
     11      41.4636      0.00000
     12      41.6885      0.00000
     13      43.2161      0.00000
     14      44.3649      0.00000
     15      45.6619      0.00000
     16      47.3791      0.00000
     17      52.7423      0.00000
     18      52.9529      0.00000
     19      55.9250      0.00000
     20      56.4157      0.00000
     21      57.4730      0.00000
     22      58.7231      0.00000
     23      59.1196      0.00000
     24      60.4497      0.00000
     25      60.7999      0.00000
     26      62.4952      0.00000
     27      63.6956      0.00000
     28      63.7114      0.00000
     29      65.4183      0.00000
     30      66.8193      0.00000
     31      67.1327      0.00000
     32      73.0927      0.00000
     33      74.4370      0.00000
     34      79.4502      0.00000
     35      79.9784      0.00000
     36      84.2760      0.00000

 k-point 255 :      -0.3000    0.5000    0.2000
  band No.  band energies     occupation 
      1       6.4214      1.00000
      2       7.7561      1.00001
      3       8.0888      0.49824
      4       9.7232     -0.00000
      5      21.4818      0.00000
      6      23.0960      0.00000
      7      26.3899      0.00000
      8      27.8308      0.00000
      9      35.2197      0.00000
     10      40.0339      0.00000
     11      42.2431      0.00000
     12      42.5905      0.00000
     13      43.0845      0.00000
     14      44.2681      0.00000
     15      44.2943      0.00000
     16      45.3362      0.00000
     17      51.6927      0.00000
     18      54.3790      0.00000
     19      55.3493      0.00000
     20      55.8943      0.00000
     21      57.3674      0.00000
     22      57.8035      0.00000
     23      58.7745      0.00000
     24      59.4350      0.00000
     25      61.8663      0.00000
     26      62.6586      0.00000
     27      63.1286      0.00000
     28      64.8800      0.00000
     29      66.6281      0.00000
     30      66.8770      0.00000
     31      68.0358      0.00000
     32      73.3881      0.00000
     33      75.8709      0.00000
     34      79.8126      0.00000
     35      79.9056      0.00000
     36      82.0130      0.00000

 k-point 256 :      -0.2500    0.5000    0.2500
  band No.  band energies     occupation 
      1       7.1712      1.00000
      2       7.1712      1.00000
      3       8.1881     -0.02454
      4       9.1359     -0.00000
      5      23.8759      0.00000
      6      23.8759      0.00000
      7      24.4219      0.00000
      8      26.4653      0.00000
      9      35.2425      0.00000
     10      40.0576      0.00000
     11      42.6188      0.00000
     12      42.6188      0.00000
     13      43.3926      0.00000
     14      43.3926      0.00000
     15      44.1918      0.00000
     16      45.1536      0.00000
     17      53.2787      0.00000
     18      53.2787      0.00000
     19      56.0663      0.00000
     20      56.1210      0.00000
     21      59.6777      0.00000
     22      59.8021      0.00000
     23      60.1907      0.00000
     24      60.2826      0.00000
     25      60.2826      0.00000
     26      60.5420      0.00000
     27      62.9404      0.00000
     28      62.9404      0.00000
     29      66.2897      0.00000
     30      66.2897      0.00000
     31      67.2089      0.00000
     32      73.5932      0.00000
     33      75.3379      0.00000
     34      79.9505      0.00000
     35      79.9505      0.00000
     36      81.6232      0.00000


--------------------------------------------------------------------------------------------------------


 soft charge-density along one line, spin component           1
         0         1         2         3         4         5         6         7         8         9
x     3.0386    0.0335   -0.0177    0.0022    0.0001    0.0000    0.0000    0.0000   -0.0000    0.0000
y     3.0386    0.0335   -0.0177    0.0022    0.0001    0.0000    0.0000    0.0000   -0.0000    0.0000
z     3.0386    0.0335   -0.0177    0.0022    0.0001    0.0000    0.0000    0.0000   -0.0000    0.0000
 total charge-density along one line
x     3.0000    0.0055   -0.0274    0.0014    0.0002   -0.0000    0.0000   -0.0000    0.0000   -0.0000
x    -0.0000    0.0000   -0.0000    0.0000   -0.0000    0.0000   -0.0000    0.0000   -0.0000
y     3.0000    0.0055   -0.0274    0.0014    0.0002   -0.0000    0.0000   -0.0000    0.0000   -0.0000
y    -0.0000    0.0000   -0.0000    0.0000   -0.0000    0.0000   -0.0000    0.0000   -0.0000
z     3.0000    0.0055   -0.0274    0.0014    0.0002   -0.0000    0.0000   -0.0000    0.0000   -0.0000
z    -0.0000    0.0000   -0.0000    0.0000   -0.0000    0.0000   -0.0000    0.0000   -0.0000
 
 soft charge-density along one line, spin component           2
         0         1         2         3         4         5         6         7         8         9
x    -0.0000    0.0000    0.0000   -0.0000   -0.0000    0.0000   -0.0000    0.0000    0.0000    0.0000
y    -0.0000    0.0000    0.0000   -0.0000   -0.0000    0.0000   -0.0000    0.0000    0.0000    0.0000
z    -0.0000    0.0000    0.0000   -0.0000   -0.0000    0.0000   -0.0000    0.0000    0.0000    0.0000
 total charge-density along one line
x    -0.0000    0.0000   -0.0000   -0.0000   -0.0000    0.0000   -0.0000    0.0000   -0.0000    0.0000
x     0.0000   -0.0000    0.0000   -0.0000    0.0000   -0.0000    0.0000   -0.0000    0.0000
y    -0.0000    0.0000   -0.0000   -0.0000   -0.0000    0.0000   -0.0000    0.0000   -0.0000    0.0000
y     0.0000   -0.0000    0.0000   -0.0000    0.0000   -0.0000    0.0000   -0.0000    0.0000
z    -0.0000    0.0000   -0.0000   -0.0000   -0.0000    0.0000   -0.0000    0.0000   -0.0000    0.0000
z     0.0000   -0.0000    0.0000   -0.0000    0.0000   -0.0000    0.0000   -0.0000    0.0000
 
 pseudopotential strength for first ion, spin component:           1
  8.444  -0.006  -0.000   0.000  -0.000  -0.000   0.000  -0.000
 -0.006   0.000  -0.000   0.000  -0.000   0.000  -0.000   0.000
 -0.000  -0.000   1.988   0.000   0.000  -0.027  -0.000  -0.000
  0.000   0.000   0.000   1.988   0.000  -0.000  -0.027  -0.000
 -0.000  -0.000   0.000   0.000   1.988  -0.000  -0.000  -0.027
 -0.000   0.000  -0.027  -0.000  -0.000  -0.012  -0.000  -0.000
  0.000  -0.000  -0.000  -0.027  -0.000  -0.000  -0.012  -0.000
 -0.000   0.000  -0.000  -0.000  -0.027  -0.000  -0.000  -0.012
 pseudopotential strength for first ion, spin component:           2
  8.444  -0.006  -0.000   0.000  -0.000  -0.000   0.000  -0.000
 -0.006   0.000  -0.000   0.000  -0.000   0.000  -0.000   0.000
 -0.000  -0.000   1.988   0.000   0.000  -0.027  -0.000  -0.000
  0.000   0.000   0.000   1.988   0.000  -0.000  -0.027  -0.000
 -0.000  -0.000   0.000   0.000   1.988  -0.000  -0.000  -0.027
 -0.000   0.000  -0.027  -0.000  -0.000  -0.012  -0.000  -0.000
  0.000  -0.000  -0.000  -0.027  -0.000  -0.000  -0.012  -0.000
 -0.000   0.000  -0.000  -0.000  -0.027  -0.000  -0.000  -0.012
 total augmentation occupancy for first ion, spin component:           1
  1.331  -0.473  -0.000   0.000  -0.000   0.000  -0.000   0.000
 -0.473   0.477   0.000   0.000  -0.000   0.000   0.000  -0.000
 -0.000   0.000   0.460   0.399  -0.472  -0.102  -0.101   0.102
  0.000   0.000   0.399   1.144  -0.275  -0.100  -0.260   0.068
 -0.000  -0.000  -0.472  -0.275   0.589   0.101   0.068  -0.122
  0.000   0.000  -0.102  -0.100   0.101   0.026   0.028  -0.026
 -0.000   0.000  -0.101  -0.260   0.068   0.028   0.067  -0.019
  0.000  -0.000   0.102   0.068  -0.122  -0.026  -0.019   0.030
 total augmentation occupancy for first ion, spin component:           2
  0.000   0.000  -0.000   0.000   0.000   0.000   0.000  -0.000
  0.000  -0.000   0.000  -0.000  -0.000  -0.000  -0.000   0.000
 -0.000   0.000   0.000   0.000  -0.000   0.000   0.000  -0.000
  0.000  -0.000   0.000   0.000  -0.000   0.000   0.000  -0.000
  0.000  -0.000  -0.000  -0.000   0.000  -0.000  -0.000   0.000
  0.000  -0.000   0.000   0.000  -0.000  -0.000  -0.000   0.000
  0.000  -0.000   0.000   0.000  -0.000  -0.000  -0.000   0.000
 -0.000   0.000  -0.000  -0.000   0.000   0.000   0.000  -0.000


------------------------ aborting loop because EDIFF is reached ----------------------------------------


 


 total charge     
 
# of ion     s       p       d       tot
----------------------------------------
  1        0.429   0.340   0.000   0.769
 


 magnetization (x)
 
# of ion     s       p       d       tot
----------------------------------------
  1       -0.000  -0.000   0.000  -0.000
 


--------------------------------------------------------------------------------------------------------


    CHARGE:  VPU time    0.15: CPU time    0.15
    FORLOC:  VPU time    0.00: CPU time    0.00
    FORNL :  VPU time    0.23: CPU time    0.23
    STRESS:  VPU time    0.69: CPU time    0.69
    FORCOR:  VPU time    0.06: CPU time    0.06
    FORHAR:  VPU time    0.01: CPU time    0.01
    MIXING:  VPU time    0.00: CPU time    0.00


--------------------------------------------------------------------------------------------------------



  FREE ENERGIE OF THE ION-ELECTRON SYSTEM (eV)
  ---------------------------------------------------
  free  energy   TOTEN  =        -3.742675 eV

  energy  without entropy=       -3.742564  energy(sigma->0) =       -3.742638
 

  FORCE on cell =-STRESS in cart. coord.  units (eV/reduce length):
  Direction    X        Y        Z        XY       YZ       ZX
  --------------------------------------------------------------------------------------
  Alpha Z     -0.20     -0.20     -0.20
  Ewald      -24.52    -24.52    -24.52      0.00     -0.00     -0.00
  Hartree      0.03      0.03      0.03      0.00      0.00      0.00
  E(xc)       -8.57     -8.57     -8.57      0.00      0.00      0.00
  Local        0.35      0.35      0.35     -0.00     -0.00     -0.00
  n-local     19.01     18.71     19.02      0.49     -0.59      0.53
  augment     -1.03     -1.03     -1.03      0.00      0.00      0.00
  Kinetic     12.17     10.89     22.01     -9.55      8.34     -6.20
  -------------------------------------------------------------------------------------
  Total        0.00      0.00      0.00     -0.00     -0.00      0.00
  in kB        0.04      0.04      0.04     -0.00     -0.00      0.00
  external pressure =        0.04 kB  Pullay stress =        0.00 kB


 VOLUME and BASIS-vectors are now :
 -----------------------------------------------------------------------------
  energy-cutoff  :      336.42
  volume of cell :       16.47
      direct lattice vectors                 reciprocal lattice vectors
     0.000000000  2.019441048  2.019441048    -0.247593264  0.247593264  0.247593264
     2.019441048  0.000000000  2.019441048     0.247593264 -0.247593264  0.247593264
     2.019441048  2.019441048  0.000000000     0.247593264  0.247593264 -0.247593264

  length of vectors
     2.855920918  2.855920918  2.855920918     0.428844112  0.428844112  0.428844112


 FORCES acting on ions
    electron-ion (+dipol)            ewald-force                    non-local-force                 convergence-correction
 -----------------------------------------------------------------------------------------------
   0.378E-15 0.295E-14 0.224E-14   0.537E-16 -.269E-16 -.192E-15   0.258E-25 -.258E-25 -.258E-25   -.794E-18 0.897E-17 -.320E-18
 -----------------------------------------------------------------------------------------------
   0.378E-15 0.295E-14 0.224E-14   0.537E-16 -.269E-16 -.192E-15   0.258E-25 -.258E-25 -.258E-25   -.794E-18 0.897E-17 -.320E-18
 
 
 POSITION                                       TOTAL-FORCE (eV/Angst)
 -----------------------------------------------------------------------------------
      0.00000      0.00000      0.00000         0.000000      0.000000     -0.000000
 -----------------------------------------------------------------------------------
    total drift:                                0.000000      0.000000      0.000000


--------------------------------------------------------------------------------------------------------




--------------------------------------------------------------------------------------------------------


  
 reached required accuracy - stopping structural energy minimisation
     LOOP+:  VPU time  207.98: CPU time  208.02
 


 total charge     
 
# of ion     s       p       d       tot
----------------------------------------
  1        0.429   0.340   0.000   0.769
 


 magnetization (x)
 
# of ion     s       p       d       tot
----------------------------------------
  1       -0.000  -0.000   0.000  -0.000
 
  
  
 General timing and accounting informations for this job:
 ========================================================
  
                  Total CPU time used (sec):      210.444
                            User time (sec):      209.852
                          System time (sec):        0.592
                         Elapsed time (sec):      210.489
  
                   Maximum memory used (kb):      120288.
                   Average memory used (kb):           0.
  
                          Minor page faults:        27767
                          Major page faults:            0
                 Voluntary context switches:           97
