<?xml version="1.0" encoding="ISO-8859-1"?>
<modeling>
 <generator>
  <i name="program" type="string">vasp</i>
  <i name="version" type="string">4.6.35 </i>
  <i name="subversion" type="string">3Apr08 complex  serial</i>
  <i name="platform" type="string">LinuxIFC</i>
  <i name="date" type="string">2025 02 21</i>
  <i name="time" type="string">14:24:31</i>
 </generator>
 <incar>
  <i type="string" name="SYSTEM">Al</i>
  <i type="string" name="PREC">accurate</i>
  <i type="string" name="ALGO">Normal</i>
  <i type="int" name="ISPIN">     2</i>
  <i type="int" name="NELM">    60</i>
  <i name="EDIFF">      0.00000100</i>
  <i type="int" name="IBRION">     2</i>
  <i type="int" name="NSW">    51</i>
  <i type="int" name="ISIF">     3</i>
  <i type="int" name="ISYM">     2</i>
  <i name="ENMAX">    336.42000000</i>
  <i type="int" name="NBANDS">    36</i>
  <v name="MAGMOM">      1.00000000</v>
  <i type="logical" name="LREAL"> F  </i>
  <i type="int" name="ISMEAR">     1</i>
  <i name="SIGMA">      0.10000000</i>
  <i type="logical" name="LWAVE"> F  </i>
  <i type="logical" name="LCHARG"> T  </i>
  <i type="logical" name="LORBIT"> F  </i>
 </incar>
 <kpoints>
  <generation param="Gamma">
   <v type="int" name="divisions">      20      20      20</v>
   <v name="usershift">      0.00000000       0.00000000       0.00000000 </v>
   <v name="genvec1">      0.05000000       0.00000000       0.00000000 </v>
   <v name="genvec2">      0.00000000       0.05000000       0.00000000 </v>
   <v name="genvec3">      0.00000000       0.00000000       0.05000000 </v>
   <v name="shift">      0.00000000       0.00000000       0.00000000 </v>
  </generation>
  <varray name="kpointlist" >
   <v>       0.00000000       0.00000000       0.00000000 </v>
   <v>       0.05000000       0.00000000       0.00000000 </v>
   <v>       0.10000000       0.00000000       0.00000000 </v>
   <v>       0.15000000       0.00000000       0.00000000 </v>
   <v>       0.20000000       0.00000000       0.00000000 </v>
   <v>       0.25000000       0.00000000       0.00000000 </v>
   <v>       0.30000000       0.00000000       0.00000000 </v>
   <v>       0.35000000       0.00000000       0.00000000 </v>
   <v>       0.40000000       0.00000000       0.00000000 </v>
   <v>       0.45000000       0.00000000       0.00000000 </v>
   <v>       0.50000000       0.00000000       0.00000000 </v>
   <v>       0.05000000       0.05000000       0.00000000 </v>
   <v>       0.10000000       0.05000000       0.00000000 </v>
   <v>       0.15000000       0.05000000       0.00000000 </v>
   <v>       0.20000000       0.05000000       0.00000000 </v>
   <v>       0.25000000       0.05000000       0.00000000 </v>
   <v>       0.30000000       0.05000000       0.00000000 </v>
   <v>       0.35000000       0.05000000       0.00000000 </v>
   <v>       0.40000000       0.05000000       0.00000000 </v>
   <v>       0.45000000       0.05000000       0.00000000 </v>
   <v>       0.50000000       0.05000000       0.00000000 </v>
   <v>      -0.45000000       0.05000000       0.00000000 </v>
   <v>      -0.40000000       0.05000000       0.00000000 </v>
   <v>      -0.35000000       0.05000000       0.00000000 </v>
   <v>      -0.30000000       0.05000000       0.00000000 </v>
   <v>      -0.25000000       0.05000000       0.00000000 </v>
   <v>      -0.20000000       0.05000000       0.00000000 </v>
   <v>      -0.15000000       0.05000000       0.00000000 </v>
   <v>      -0.10000000       0.05000000       0.00000000 </v>
   <v>      -0.05000000       0.05000000       0.00000000 </v>
   <v>       0.10000000       0.10000000       0.00000000 </v>
   <v>       0.15000000       0.10000000       0.00000000 </v>
   <v>       0.20000000       0.10000000       0.00000000 </v>
   <v>       0.25000000       0.10000000       0.00000000 </v>
   <v>       0.30000000       0.10000000       0.00000000 </v>
   <v>       0.35000000       0.10000000       0.00000000 </v>
   <v>       0.40000000       0.10000000       0.00000000 </v>
   <v>       0.45000000       0.10000000       0.00000000 </v>
   <v>       0.50000000       0.10000000       0.00000000 </v>
   <v>      -0.45000000       0.10000000       0.00000000 </v>
   <v>      -0.40000000       0.10000000       0.00000000 </v>
   <v>      -0.35000000       0.10000000       0.00000000 </v>
   <v>      -0.30000000       0.10000000       0.00000000 </v>
   <v>      -0.25000000       0.10000000       0.00000000 </v>
   <v>      -0.20000000       0.10000000       0.00000000 </v>
   <v>      -0.15000000       0.10000000       0.00000000 </v>
   <v>      -0.10000000       0.10000000       0.00000000 </v>
   <v>       0.15000000       0.15000000       0.00000000 </v>
   <v>       0.20000000       0.15000000       0.00000000 </v>
   <v>       0.25000000       0.15000000       0.00000000 </v>
   <v>       0.30000000       0.15000000       0.00000000 </v>
   <v>       0.35000000       0.15000000       0.00000000 </v>
   <v>       0.40000000       0.15000000       0.00000000 </v>
   <v>       0.45000000       0.15000000       0.00000000 </v>
   <v>       0.50000000       0.15000000       0.00000000 </v>
   <v>      -0.45000000       0.15000000       0.00000000 </v>
   <v>      -0.40000000       0.15000000       0.00000000 </v>
   <v>      -0.35000000       0.15000000       0.00000000 </v>
   <v>      -0.30000000       0.15000000       0.00000000 </v>
   <v>      -0.25000000       0.15000000       0.00000000 </v>
   <v>      -0.20000000       0.15000000       0.00000000 </v>
   <v>      -0.15000000       0.15000000       0.00000000 </v>
   <v>       0.20000000       0.20000000       0.00000000 </v>
   <v>       0.25000000       0.20000000       0.00000000 </v>
   <v>       0.30000000       0.20000000       0.00000000 </v>
   <v>       0.35000000       0.20000000       0.00000000 </v>
   <v>       0.40000000       0.20000000       0.00000000 </v>
   <v>       0.45000000       0.20000000       0.00000000 </v>
   <v>       0.50000000       0.20000000       0.00000000 </v>
   <v>      -0.45000000       0.20000000       0.00000000 </v>
   <v>      -0.40000000       0.20000000       0.00000000 </v>
   <v>      -0.35000000       0.20000000       0.00000000 </v>
   <v>      -0.30000000       0.20000000       0.00000000 </v>
   <v>      -0.25000000       0.20000000       0.00000000 </v>
   <v>      -0.20000000       0.20000000       0.00000000 </v>
   <v>       0.25000000       0.25000000       0.00000000 </v>
   <v>       0.30000000       0.25000000       0.00000000 </v>
   <v>       0.35000000       0.25000000       0.00000000 </v>
   <v>       0.40000000       0.25000000       0.00000000 </v>
   <v>       0.45000000       0.25000000       0.00000000 </v>
   <v>       0.50000000       0.25000000       0.00000000 </v>
   <v>      -0.45000000       0.25000000       0.00000000 </v>
   <v>      -0.40000000       0.25000000       0.00000000 </v>
   <v>      -0.35000000       0.25000000       0.00000000 </v>
   <v>      -0.30000000       0.25000000       0.00000000 </v>
   <v>      -0.25000000       0.25000000       0.00000000 </v>
   <v>       0.30000000       0.30000000       0.00000000 </v>
   <v>       0.35000000       0.30000000       0.00000000 </v>
   <v>       0.40000000       0.30000000       0.00000000 </v>
   <v>       0.45000000       0.30000000       0.00000000 </v>
   <v>       0.50000000       0.30000000       0.00000000 </v>
   <v>      -0.45000000       0.30000000       0.00000000 </v>
   <v>      -0.40000000       0.30000000       0.00000000 </v>
   <v>      -0.35000000       0.30000000       0.00000000 </v>
   <v>      -0.30000000       0.30000000       0.00000000 </v>
   <v>       0.35000000       0.35000000       0.00000000 </v>
   <v>       0.40000000       0.35000000       0.00000000 </v>
   <v>       0.45000000       0.35000000       0.00000000 </v>
   <v>       0.50000000       0.35000000       0.00000000 </v>
   <v>      -0.45000000       0.35000000       0.00000000 </v>
   <v>      -0.40000000       0.35000000       0.00000000 </v>
   <v>      -0.35000000       0.35000000       0.00000000 </v>
   <v>       0.40000000       0.40000000       0.00000000 </v>
   <v>       0.45000000       0.40000000       0.00000000 </v>
   <v>       0.50000000       0.40000000       0.00000000 </v>
   <v>      -0.45000000       0.40000000       0.00000000 </v>
   <v>      -0.40000000       0.40000000       0.00000000 </v>
   <v>       0.45000000       0.45000000       0.00000000 </v>
   <v>       0.50000000       0.45000000       0.00000000 </v>
   <v>      -0.45000000       0.45000000       0.00000000 </v>
   <v>       0.50000000       0.50000000       0.00000000 </v>
   <v>       0.15000000       0.10000000       0.05000000 </v>
   <v>       0.20000000       0.10000000       0.05000000 </v>
   <v>       0.25000000       0.10000000       0.05000000 </v>
   <v>       0.30000000       0.10000000       0.05000000 </v>
   <v>       0.35000000       0.10000000       0.05000000 </v>
   <v>       0.40000000       0.10000000       0.05000000 </v>
   <v>       0.45000000       0.10000000       0.05000000 </v>
   <v>       0.50000000       0.10000000       0.05000000 </v>
   <v>      -0.45000000       0.10000000       0.05000000 </v>
   <v>       0.20000000       0.15000000       0.05000000 </v>
   <v>       0.25000000       0.15000000       0.05000000 </v>
   <v>       0.30000000       0.15000000       0.05000000 </v>
   <v>       0.35000000       0.15000000       0.05000000 </v>
   <v>       0.40000000       0.15000000       0.05000000 </v>
   <v>       0.45000000       0.15000000       0.05000000 </v>
   <v>       0.50000000       0.15000000       0.05000000 </v>
   <v>      -0.45000000       0.15000000       0.05000000 </v>
   <v>      -0.40000000       0.15000000       0.05000000 </v>
   <v>      -0.35000000       0.15000000       0.05000000 </v>
   <v>      -0.30000000       0.15000000       0.05000000 </v>
   <v>      -0.25000000       0.15000000       0.05000000 </v>
   <v>      -0.20000000       0.15000000       0.05000000 </v>
   <v>      -0.15000000       0.15000000       0.05000000 </v>
   <v>      -0.10000000       0.15000000       0.05000000 </v>
   <v>       0.25000000       0.20000000       0.05000000 </v>
   <v>       0.30000000       0.20000000       0.05000000 </v>
   <v>       0.35000000       0.20000000       0.05000000 </v>
   <v>       0.40000000       0.20000000       0.05000000 </v>
   <v>       0.45000000       0.20000000       0.05000000 </v>
   <v>       0.50000000       0.20000000       0.05000000 </v>
   <v>      -0.45000000       0.20000000       0.05000000 </v>
   <v>      -0.40000000       0.20000000       0.05000000 </v>
   <v>      -0.35000000       0.20000000       0.05000000 </v>
   <v>      -0.30000000       0.20000000       0.05000000 </v>
   <v>      -0.25000000       0.20000000       0.05000000 </v>
   <v>      -0.20000000       0.20000000       0.05000000 </v>
   <v>      -0.15000000       0.20000000       0.05000000 </v>
   <v>       0.30000000       0.25000000       0.05000000 </v>
   <v>       0.35000000       0.25000000       0.05000000 </v>
   <v>       0.40000000       0.25000000       0.05000000 </v>
   <v>       0.45000000       0.25000000       0.05000000 </v>
   <v>       0.50000000       0.25000000       0.05000000 </v>
   <v>      -0.45000000       0.25000000       0.05000000 </v>
   <v>      -0.40000000       0.25000000       0.05000000 </v>
   <v>      -0.35000000       0.25000000       0.05000000 </v>
   <v>      -0.30000000       0.25000000       0.05000000 </v>
   <v>      -0.25000000       0.25000000       0.05000000 </v>
   <v>      -0.20000000       0.25000000       0.05000000 </v>
   <v>       0.35000000       0.30000000       0.05000000 </v>
   <v>       0.40000000       0.30000000       0.05000000 </v>
   <v>       0.45000000       0.30000000       0.05000000 </v>
   <v>       0.50000000       0.30000000       0.05000000 </v>
   <v>      -0.45000000       0.30000000       0.05000000 </v>
   <v>      -0.40000000       0.30000000       0.05000000 </v>
   <v>      -0.35000000       0.30000000       0.05000000 </v>
   <v>      -0.30000000       0.30000000       0.05000000 </v>
   <v>      -0.25000000       0.30000000       0.05000000 </v>
   <v>       0.40000000       0.35000000       0.05000000 </v>
   <v>       0.45000000       0.35000000       0.05000000 </v>
   <v>       0.50000000       0.35000000       0.05000000 </v>
   <v>      -0.45000000       0.35000000       0.05000000 </v>
   <v>      -0.40000000       0.35000000       0.05000000 </v>
   <v>      -0.35000000       0.35000000       0.05000000 </v>
   <v>      -0.30000000       0.35000000       0.05000000 </v>
   <v>       0.45000000       0.40000000       0.05000000 </v>
   <v>       0.50000000       0.40000000       0.05000000 </v>
   <v>      -0.45000000       0.40000000       0.05000000 </v>
   <v>      -0.40000000       0.40000000       0.05000000 </v>
   <v>      -0.35000000       0.40000000       0.05000000 </v>
   <v>       0.50000000       0.45000000       0.05000000 </v>
   <v>      -0.45000000       0.45000000       0.05000000 </v>
   <v>      -0.40000000       0.45000000       0.05000000 </v>
   <v>      -0.45000000       0.50000000       0.05000000 </v>
   <v>       0.30000000       0.20000000       0.10000000 </v>
   <v>       0.35000000       0.20000000       0.10000000 </v>
   <v>       0.40000000       0.20000000       0.10000000 </v>
   <v>       0.45000000       0.20000000       0.10000000 </v>
   <v>       0.50000000       0.20000000       0.10000000 </v>
   <v>      -0.45000000       0.20000000       0.10000000 </v>
   <v>      -0.40000000       0.20000000       0.10000000 </v>
   <v>       0.35000000       0.25000000       0.10000000 </v>
   <v>       0.40000000       0.25000000       0.10000000 </v>
   <v>       0.45000000       0.25000000       0.10000000 </v>
   <v>       0.50000000       0.25000000       0.10000000 </v>
   <v>      -0.45000000       0.25000000       0.10000000 </v>
   <v>      -0.40000000       0.25000000       0.10000000 </v>
   <v>      -0.35000000       0.25000000       0.10000000 </v>
   <v>      -0.30000000       0.25000000       0.10000000 </v>
   <v>      -0.25000000       0.25000000       0.10000000 </v>
   <v>      -0.20000000       0.25000000       0.10000000 </v>
   <v>      -0.15000000       0.25000000       0.10000000 </v>
   <v>       0.40000000       0.30000000       0.10000000 </v>
   <v>       0.45000000       0.30000000       0.10000000 </v>
   <v>       0.50000000       0.30000000       0.10000000 </v>
   <v>      -0.45000000       0.30000000       0.10000000 </v>
   <v>      -0.40000000       0.30000000       0.10000000 </v>
   <v>      -0.35000000       0.30000000       0.10000000 </v>
   <v>      -0.30000000       0.30000000       0.10000000 </v>
   <v>      -0.25000000       0.30000000       0.10000000 </v>
   <v>      -0.20000000       0.30000000       0.10000000 </v>
   <v>       0.45000000       0.35000000       0.10000000 </v>
   <v>       0.50000000       0.35000000       0.10000000 </v>
   <v>      -0.45000000       0.35000000       0.10000000 </v>
   <v>      -0.40000000       0.35000000       0.10000000 </v>
   <v>      -0.35000000       0.35000000       0.10000000 </v>
   <v>      -0.30000000       0.35000000       0.10000000 </v>
   <v>      -0.25000000       0.35000000       0.10000000 </v>
   <v>       0.50000000       0.40000000       0.10000000 </v>
   <v>      -0.45000000       0.40000000       0.10000000 </v>
   <v>      -0.40000000       0.40000000       0.10000000 </v>
   <v>      -0.35000000       0.40000000       0.10000000 </v>
   <v>      -0.30000000       0.40000000       0.10000000 </v>
   <v>      -0.45000000       0.45000000       0.10000000 </v>
   <v>      -0.40000000       0.45000000       0.10000000 </v>
   <v>      -0.35000000       0.45000000       0.10000000 </v>
   <v>      -0.40000000       0.50000000       0.10000000 </v>
   <v>       0.45000000       0.30000000       0.15000000 </v>
   <v>       0.50000000       0.30000000       0.15000000 </v>
   <v>      -0.45000000       0.30000000       0.15000000 </v>
   <v>      -0.40000000       0.30000000       0.15000000 </v>
   <v>      -0.35000000       0.30000000       0.15000000 </v>
   <v>       0.50000000       0.35000000       0.15000000 </v>
   <v>      -0.45000000       0.35000000       0.15000000 </v>
   <v>      -0.40000000       0.35000000       0.15000000 </v>
   <v>      -0.35000000       0.35000000       0.15000000 </v>
   <v>      -0.30000000       0.35000000       0.15000000 </v>
   <v>      -0.25000000       0.35000000       0.15000000 </v>
   <v>      -0.20000000       0.35000000       0.15000000 </v>
   <v>      -0.45000000       0.40000000       0.15000000 </v>
   <v>      -0.40000000       0.40000000       0.15000000 </v>
   <v>      -0.35000000       0.40000000       0.15000000 </v>
   <v>      -0.30000000       0.40000000       0.15000000 </v>
   <v>      -0.25000000       0.40000000       0.15000000 </v>
   <v>      -0.40000000       0.45000000       0.15000000 </v>
   <v>      -0.35000000       0.45000000       0.15000000 </v>
   <v>      -0.30000000       0.45000000       0.15000000 </v>
   <v>      -0.35000000       0.50000000       0.15000000 </v>
   <v>      -0.40000000       0.40000000       0.20000000 </v>
   <v>      -0.35000000       0.40000000       0.20000000 </v>
   <v>      -0.30000000       0.40000000       0.20000000 </v>
   <v>      -0.35000000       0.45000000       0.20000000 </v>
   <v>      -0.30000000       0.45000000       0.20000000 </v>
   <v>      -0.25000000       0.45000000       0.20000000 </v>
   <v>      -0.30000000       0.50000000       0.20000000 </v>
   <v>      -0.25000000       0.50000000       0.25000000 </v>
  </varray>
  <varray name="weights" >
   <v>       0.00012500 </v>
   <v>       0.00100000 </v>
   <v>       0.00100000 </v>
   <v>       0.00100000 </v>
   <v>       0.00100000 </v>
   <v>       0.00100000 </v>
   <v>       0.00100000 </v>
   <v>       0.00100000 </v>
   <v>       0.00100000 </v>
   <v>       0.00100000 </v>
   <v>       0.00050000 </v>
   <v>       0.00075000 </v>
   <v>       0.00300000 </v>
   <v>       0.00300000 </v>
   <v>       0.00300000 </v>
   <v>       0.00300000 </v>
   <v>       0.00300000 </v>
   <v>       0.00300000 </v>
   <v>       0.00300000 </v>
   <v>       0.00300000 </v>
   <v>       0.00300000 </v>
   <v>       0.00300000 </v>
   <v>       0.00300000 </v>
   <v>       0.00300000 </v>
   <v>       0.00300000 </v>
   <v>       0.00300000 </v>
   <v>       0.00300000 </v>
   <v>       0.00300000 </v>
   <v>       0.00300000 </v>
   <v>       0.00150000 </v>
   <v>       0.00075000 </v>
   <v>       0.00300000 </v>
   <v>       0.00300000 </v>
   <v>       0.00300000 </v>
   <v>       0.00300000 </v>
   <v>       0.00300000 </v>
   <v>       0.00300000 </v>
   <v>       0.00300000 </v>
   <v>       0.00300000 </v>
   <v>       0.00300000 </v>
   <v>       0.00300000 </v>
   <v>       0.00300000 </v>
   <v>       0.00300000 </v>
   <v>       0.00300000 </v>
   <v>       0.00300000 </v>
   <v>       0.00300000 </v>
   <v>       0.00150000 </v>
   <v>       0.00075000 </v>
   <v>       0.00300000 </v>
   <v>       0.00300000 </v>
   <v>       0.00300000 </v>
   <v>       0.00300000 </v>
   <v>       0.00300000 </v>
   <v>       0.00300000 </v>
   <v>       0.00300000 </v>
   <v>       0.00300000 </v>
   <v>       0.00300000 </v>
   <v>       0.00300000 </v>
   <v>       0.00300000 </v>
   <v>       0.00300000 </v>
   <v>       0.00300000 </v>
   <v>       0.00150000 </v>
   <v>       0.00075000 </v>
   <v>       0.00300000 </v>
   <v>       0.00300000 </v>
   <v>       0.00300000 </v>
   <v>       0.00300000 </v>
   <v>       0.00300000 </v>
   <v>       0.00300000 </v>
   <v>       0.00300000 </v>
   <v>       0.00300000 </v>
   <v>       0.00300000 </v>
   <v>       0.00300000 </v>
   <v>       0.00300000 </v>
   <v>       0.00150000 </v>
   <v>       0.00075000 </v>
   <v>       0.00300000 </v>
   <v>       0.00300000 </v>
   <v>       0.00300000 </v>
   <v>       0.00300000 </v>
   <v>       0.00300000 </v>
   <v>       0.00300000 </v>
   <v>       0.00300000 </v>
   <v>       0.00300000 </v>
   <v>       0.00300000 </v>
   <v>       0.00150000 </v>
   <v>       0.00075000 </v>
   <v>       0.00300000 </v>
   <v>       0.00300000 </v>
   <v>       0.00300000 </v>
   <v>       0.00300000 </v>
   <v>       0.00300000 </v>
   <v>       0.00300000 </v>
   <v>       0.00300000 </v>
   <v>       0.00150000 </v>
   <v>       0.00075000 </v>
   <v>       0.00300000 </v>
   <v>       0.00300000 </v>
   <v>       0.00300000 </v>
   <v>       0.00300000 </v>
   <v>       0.00300000 </v>
   <v>       0.00150000 </v>
   <v>       0.00075000 </v>
   <v>       0.00300000 </v>
   <v>       0.00300000 </v>
   <v>       0.00300000 </v>
   <v>       0.00150000 </v>
   <v>       0.00075000 </v>
   <v>       0.00300000 </v>
   <v>       0.00150000 </v>
   <v>       0.00037500 </v>
   <v>       0.00300000 </v>
   <v>       0.00600000 </v>
   <v>       0.00600000 </v>
   <v>       0.00600000 </v>
   <v>       0.00600000 </v>
   <v>       0.00600000 </v>
   <v>       0.00600000 </v>
   <v>       0.00600000 </v>
   <v>       0.00300000 </v>
   <v>       0.00300000 </v>
   <v>       0.00600000 </v>
   <v>       0.00600000 </v>
   <v>       0.00600000 </v>
   <v>       0.00600000 </v>
   <v>       0.00600000 </v>
   <v>       0.00600000 </v>
   <v>       0.00600000 </v>
   <v>       0.00600000 </v>
   <v>       0.00600000 </v>
   <v>       0.00600000 </v>
   <v>       0.00600000 </v>
   <v>       0.00600000 </v>
   <v>       0.00600000 </v>
   <v>       0.00300000 </v>
   <v>       0.00300000 </v>
   <v>       0.00600000 </v>
   <v>       0.00600000 </v>
   <v>       0.00600000 </v>
   <v>       0.00600000 </v>
   <v>       0.00600000 </v>
   <v>       0.00600000 </v>
   <v>       0.00600000 </v>
   <v>       0.00600000 </v>
   <v>       0.00600000 </v>
   <v>       0.00600000 </v>
   <v>       0.00600000 </v>
   <v>       0.00300000 </v>
   <v>       0.00300000 </v>
   <v>       0.00600000 </v>
   <v>       0.00600000 </v>
   <v>       0.00600000 </v>
   <v>       0.00600000 </v>
   <v>       0.00600000 </v>
   <v>       0.00600000 </v>
   <v>       0.00600000 </v>
   <v>       0.00600000 </v>
   <v>       0.00600000 </v>
   <v>       0.00300000 </v>
   <v>       0.00300000 </v>
   <v>       0.00600000 </v>
   <v>       0.00600000 </v>
   <v>       0.00600000 </v>
   <v>       0.00600000 </v>
   <v>       0.00600000 </v>
   <v>       0.00600000 </v>
   <v>       0.00600000 </v>
   <v>       0.00300000 </v>
   <v>       0.00300000 </v>
   <v>       0.00600000 </v>
   <v>       0.00600000 </v>
   <v>       0.00600000 </v>
   <v>       0.00600000 </v>
   <v>       0.00600000 </v>
   <v>       0.00300000 </v>
   <v>       0.00300000 </v>
   <v>       0.00600000 </v>
   <v>       0.00600000 </v>
   <v>       0.00600000 </v>
   <v>       0.00300000 </v>
   <v>       0.00300000 </v>
   <v>       0.00600000 </v>
   <v>       0.00300000 </v>
   <v>       0.00150000 </v>
   <v>       0.00300000 </v>
   <v>       0.00600000 </v>
   <v>       0.00600000 </v>
   <v>       0.00600000 </v>
   <v>       0.00600000 </v>
   <v>       0.00600000 </v>
   <v>       0.00300000 </v>
   <v>       0.00300000 </v>
   <v>       0.00600000 </v>
   <v>       0.00600000 </v>
   <v>       0.00600000 </v>
   <v>       0.00600000 </v>
   <v>       0.00600000 </v>
   <v>       0.00600000 </v>
   <v>       0.00600000 </v>
   <v>       0.00600000 </v>
   <v>       0.00600000 </v>
   <v>       0.00300000 </v>
   <v>       0.00300000 </v>
   <v>       0.00600000 </v>
   <v>       0.00600000 </v>
   <v>       0.00600000 </v>
   <v>       0.00600000 </v>
   <v>       0.00600000 </v>
   <v>       0.00600000 </v>
   <v>       0.00600000 </v>
   <v>       0.00300000 </v>
   <v>       0.00300000 </v>
   <v>       0.00600000 </v>
   <v>       0.00600000 </v>
   <v>       0.00600000 </v>
   <v>       0.00600000 </v>
   <v>       0.00600000 </v>
   <v>       0.00300000 </v>
   <v>       0.00300000 </v>
   <v>       0.00600000 </v>
   <v>       0.00600000 </v>
   <v>       0.00600000 </v>
   <v>       0.00300000 </v>
   <v>       0.00300000 </v>
   <v>       0.00600000 </v>
   <v>       0.00300000 </v>
   <v>       0.00150000 </v>
   <v>       0.00300000 </v>
   <v>       0.00600000 </v>
   <v>       0.00600000 </v>
   <v>       0.00600000 </v>
   <v>       0.00300000 </v>
   <v>       0.00300000 </v>
   <v>       0.00600000 </v>
   <v>       0.00600000 </v>
   <v>       0.00600000 </v>
   <v>       0.00600000 </v>
   <v>       0.00600000 </v>
   <v>       0.00300000 </v>
   <v>       0.00300000 </v>
   <v>       0.00600000 </v>
   <v>       0.00600000 </v>
   <v>       0.00600000 </v>
   <v>       0.00300000 </v>
   <v>       0.00300000 </v>
   <v>       0.00600000 </v>
   <v>       0.00300000 </v>
   <v>       0.00150000 </v>
   <v>       0.00300000 </v>
   <v>       0.00600000 </v>
   <v>       0.00300000 </v>
   <v>       0.00300000 </v>
   <v>       0.00600000 </v>
   <v>       0.00300000 </v>
   <v>       0.00150000 </v>
   <v>       0.00075000 </v>
  </varray>
 </kpoints>
 <parameters>
  <separator name="general" >
   <i type="string" name="SYSTEM">Al</i>
   <i type="logical" name="LCOMPAT"> F  </i>
  </separator>
  <separator name="electronic" >
   <i type="string" name="PREC">accura</i>
   <i name="ENMAX">    336.42000000</i>
   <i name="ENAUG">    291.05200000</i>
   <i name="EDIFF">      0.00000100</i>
   <i type="int" name="IALGO">    38</i>
   <i type="int" name="IWAVPR">    11</i>
   <i type="int" name="NBANDS">    36</i>
   <i name="NELECT">      3.00000000</i>
   <separator name="electronic smearing" >
    <i type="int" name="ISMEAR">     1</i>
    <i name="SIGMA">      0.10000000</i>
   </separator>
   <separator name="electronic projectors" >
    <i type="logical" name="LREAL"> F  </i>
    <v name="ROPT">      0.00000000</v>
    <i type="int" name="LMAXPAW">  -100</i>
    <i type="int" name="LMAXMIX">     2</i>
   </separator>
   <separator name="electronic startup" >
    <i type="int" name="ISTART">     0</i>
    <i type="int" name="ICHARG">     2</i>
    <i type="int" name="INIWAV">     1</i>
   </separator>
   <separator name="electronic spin" >
    <i type="int" name="ISPIN">     2</i>
    <i type="logical" name="LNONCOLLINEAR"> F  </i>
    <v name="MAGMOM">      1.00000000</v>
    <i name="NUPDOWN">     -1.00000000</i>
    <i type="logical" name="LSORBIT"> F  </i>
    <v name="SAXIS">      0.00000000      0.00000000      1.00000000</v>
    <i type="logical" name="LSPIRAL"> F  </i>
    <v name="QSPIRAL">      0.00000000      0.00000000      0.00000000</v>
    <i type="logical" name="LZEROZ"> F  </i>
   </separator>
   <separator name="electronic exchange-correlation" >
    <i type="string" name="GGA">--</i>
    <i type="int" name="VOSKOWN">     0</i>
    <i type="logical" name="LASPH"> F  </i>
    <i type="logical" name="LMETAGGA"> F  </i>
    <i type="string" name="GGA2">--</i>
   </separator>
   <separator name="electronic convergence" >
    <i type="int" name="NELM">    60</i>
    <i type="int" name="NELMDL">    -5</i>
    <i type="int" name="NELMIN">     2</i>
    <i name="ENINI">    336.42000000</i>
    <separator name="electronic convergence detail" >
     <i type="logical" name="LDIAG"> T  </i>
     <i name="WEIMIN">      0.00100000</i>
     <i name="EBREAK">      0.00000001</i>
     <i name="DEPER">      0.30000000</i>
     <i type="int" name="NRMM">     4</i>
     <i name="TIME">      0.10000000</i>
    </separator>
   </separator>
   <separator name="electronic mixer" >
    <i name="AMIX">      0.40000000</i>
    <i name="BMIX">      1.00000000</i>
    <i name="AMIN">      0.10000000</i>
    <i name="AMIX_MAG">      1.60000000</i>
    <i name="BMIX_MAG">      1.00000000</i>
    <separator name="electronic mixer details" >
     <i type="int" name="IMIX">     4</i>
     <i type="int" name="MAXMIX">   -45</i>
     <i name="WC">    100.00000000</i>
     <i type="int" name="INIMIX">     1</i>
     <i type="int" name="MIXPRE">     1</i>
     <i type="int" name="MREMOVE">     5</i>
    </separator>
   </separator>
   <separator name="electronic dipolcorrection" >
    <i type="int" name="IDIPOL">     0</i>
    <i type="logical" name="LDIPOL"> F  </i>
    <v name="DIPOL">   -100.00000000</v>
    <i name="EFIELD">      0.00000000</i>
   </separator>
  </separator>
  <separator name="grids" >
   <i type="int" name="NGX">    18</i>
   <i type="int" name="NGY">    18</i>
   <i type="int" name="NGZ">    18</i>
   <i type="int" name="NGXF">    36</i>
   <i type="int" name="NGYF">    36</i>
   <i type="int" name="NGZF">    36</i>
   <i type="logical" name="ADDGRID"> F  </i>
  </separator>
  <separator name="ionic" >
   <i type="int" name="NSW">    51</i>
   <i type="int" name="IBRION">     2</i>
   <i type="int" name="ISIF">     3</i>
   <i name="PSTRESS">      0.00000000</i>
   <i name="EDIFFG">      0.00001000</i>
   <i type="int" name="NFREE">     1</i>
   <i name="POTIM">      0.50000000</i>
   <i name="SMASS">     -3.00000000</i>
  </separator>
  <separator name="ionic md" >
   <i name="TEBEG">      0.00010000</i>
   <i name="TEEND">      0.00010000</i>
   <i type="int" name="NBLOCK">     1</i>
   <i type="int" name="KBLOCK">    51</i>
   <i type="int" name="NPACO">   256</i>
   <i name="APACO">     16.00000000</i>
  </separator>
  <separator name="symmetry" >
   <i type="int" name="ISYM">     2</i>
   <i name="SYMPREC">      0.00001000</i>
  </separator>
  <separator name="dos" >
   <i type="logical" name="LORBIT"> F  </i>
   <v name="RWIGS">     -1.00000000</v>
   <i type="int" name="NEDOS">   301</i>
   <i name="EMIN">     10.00000000</i>
   <i name="EMAX">    -10.00000000</i>
  </separator>
  <separator name="writing" >
   <i type="int" name="NWRITE">     2</i>
   <i type="logical" name="LWAVE"> F  </i>
   <i type="logical" name="LCHARG"> T  </i>
   <i type="logical" name="LPARD"> F  </i>
   <i type="logical" name="LVTOT"> F  </i>
   <i type="logical" name="LELF"> F  </i>
   <i type="logical" name="LOPTICS"> F  </i>
   <v name="STM">      0.00000000      0.00000000      0.00000000      0.00000000      0.00000000</v>
  </separator>
  <separator name="performance" >
   <i type="int" name="NPAR">     1</i>
   <i type="int" name="NSIM">     4</i>
   <i type="int" name="NBLK">    32</i>
   <i type="logical" name="LPLANE"> T  </i>
   <i type="logical" name="LCRITICAL_MEM"> F  </i>
   <i type="logical" name="LSCALAPACK"> F  </i>
   <i type="logical" name="LSCALU"> F  </i>
   <i type="logical" name="LASYNC"> F  </i>
  </separator>
  <separator name="miscellaneous" >
   <i type="int" name="IDIOT">     3</i>
   <i type="logical" name="LMUSIC"> F  </i>
   <v name="POMASS">     26.98200000</v>
   <i type="logical" name="LCORR"> T  </i>
  </separator>
  <i type="logical" name="LREAL_COMPAT"> F  </i>
  <i type="logical" name="GGA_COMPAT"> T  </i>
  <i type="logical" name="LBERRY"> F  </i>
  <i type="int" name="ICORELEVEL">     0</i>
  <i type="logical" name="LDAU"> F  </i>
  <i type="int" name="I_CONSTRAINED_M">     0</i>
 </parameters>
 <atominfo>
  <atoms>       1</atoms>
  <types>       1</types>
  <array name="atoms" >
   <dimension dim="1">ion</dimension>
   <field type="string">element</field>
   <field type="int">atomtype</field>
   <set>
    <rc><c>Al</c><c>   1</c></rc>
   </set>
  </array>
  <array name="atomtypes" >
   <dimension dim="1">type</dimension>
   <field type="int">atomspertype</field>
   <field type="string">element</field>
   <field>mass</field>
   <field>valence</field>
   <field type="string">pseudopotential</field>
   <set>
    <rc><c>   1</c><c>Al</c><c>     26.98200000</c><c>      3.00000000</c><c> PAW_PBE Al 04Jan2001                   </c></rc>
   </set>
  </array>
 </atominfo>
 <structure name="initialpos" >
  <crystal>
   <varray name="basis" >
    <v>       0.00000000       2.01944105       2.01944105 </v>
    <v>       2.01944105       0.00000000       2.01944105 </v>
    <v>       2.01944105       2.01944105       0.00000000 </v>
   </varray>
   <i name="volume">     16.47113530</i>
   <varray name="rec_basis" >
    <v>      -0.24759326       0.24759326       0.24759326 </v>
    <v>       0.24759326      -0.24759326       0.24759326 </v>
    <v>       0.24759326       0.24759326      -0.24759326 </v>
   </varray>
  </crystal>
  <varray name="positions" >
   <v>       0.00000000       0.00000000       0.00000000 </v>
  </varray>
 </structure>
 <calculation>
  <scstep>
   <time name="dav">   15.91   15.92</time>
   <time name="total">   16.03   16.04</time>
   <energy>
    <i name="alphaZ">     -0.20392110</i>
    <i name="ewald">    -73.55863929</i>
    <i name="hartreedc">     -0.10074863</i>
    <i name="XCdc">    -26.08668243</i>
    <i name="pawpsdc">     35.50090414</i>
    <i name="pawaedc">     -3.54792879</i>
    <i name="eentropy">     -0.00006498</i>
    <i name="bandstr">     16.49806112</i>
    <i name="atom">     53.53802810</i>
    <i name="e_fr_energy">      2.03900815</i>
    <i name="e_wo_entrp">      2.03907313</i>
    <i name="e_0_energy">      2.03902981</i>
   </energy>
  </scstep>
  <scstep>
   <time name="dav">   18.79   18.80</time>
   <time name="total">   18.84   18.84</time>
   <energy>
    <i name="e_fr_energy">     -3.46533730</i>
    <i name="e_wo_entrp">     -3.46549873</i>
    <i name="e_0_energy">     -3.46539111</i>
   </energy>
  </scstep>
  <scstep>
   <time name="dav">   17.37   17.37</time>
   <time name="total">   17.41   17.41</time>
   <energy>
    <i name="e_fr_energy">     -3.52390256</i>
    <i name="e_wo_entrp">     -3.52399553</i>
    <i name="e_0_energy">     -3.52393355</i>
   </energy>
  </scstep>
  <scstep>
   <time name="dav">   17.37   17.38</time>
   <time name="total">   17.42   17.42</time>
   <energy>
    <i name="e_fr_energy">     -3.52391794</i>
    <i name="e_wo_entrp">     -3.52401090</i>
    <i name="e_0_energy">     -3.52394893</i>
   </energy>
  </scstep>
  <scstep>
   <time name="dav">   16.40   16.40</time>
   <time name="total">   16.58   16.58</time>
   <energy>
    <i name="e_fr_energy">     -3.52391794</i>
    <i name="e_wo_entrp">     -3.52401091</i>
    <i name="e_0_energy">     -3.52394893</i>
   </energy>
  </scstep>
  <scstep>
   <time name="dav">   16.91   16.92</time>
   <time name="total">   17.17   17.17</time>
   <energy>
    <i name="e_fr_energy">     -3.75095771</i>
    <i name="e_wo_entrp">     -3.75081733</i>
    <i name="e_0_energy">     -3.75091092</i>
   </energy>
  </scstep>
  <scstep>
   <time name="dav">   17.03   17.03</time>
   <time name="total">   17.28   17.29</time>
   <energy>
    <i name="e_fr_energy">     -3.74418118</i>
    <i name="e_wo_entrp">     -3.74405501</i>
    <i name="e_0_energy">     -3.74413913</i>
   </energy>
  </scstep>
  <scstep>
   <time name="dav">   16.79   16.79</time>
   <time name="total">   17.04   17.05</time>
   <energy>
    <i name="e_fr_energy">     -3.74289255</i>
    <i name="e_wo_entrp">     -3.74278065</i>
    <i name="e_0_energy">     -3.74285525</i>
   </energy>
  </scstep>
  <scstep>
   <time name="dav">   16.77   16.78</time>
   <time name="total">   17.03   17.04</time>
   <energy>
    <i name="e_fr_energy">     -3.74267905</i>
    <i name="e_wo_entrp">     -3.74256700</i>
    <i name="e_0_energy">     -3.74264170</i>
   </energy>
  </scstep>
  <scstep>
   <time name="dav">   17.66   17.67</time>
   <time name="total">   17.92   17.92</time>
   <energy>
    <i name="e_fr_energy">     -3.74267332</i>
    <i name="e_wo_entrp">     -3.74256153</i>
    <i name="e_0_energy">     -3.74263606</i>
   </energy>
  </scstep>
  <scstep>
   <time name="dav">   16.85   16.86</time>
   <time name="total">   17.11   17.12</time>
   <energy>
    <i name="e_fr_energy">     -3.74267457</i>
    <i name="e_wo_entrp">     -3.74256318</i>
    <i name="e_0_energy">     -3.74263744</i>
   </energy>
  </scstep>
  <scstep>
   <time name="dav">   16.72   16.73</time>
   <time name="total">   16.84   16.84</time>
   <energy>
    <i name="alphaZ">     -0.20392110</i>
    <i name="ewald">    -73.55863929</i>
    <i name="hartreedc">     -0.10332529</i>
    <i name="XCdc">    -26.12791976</i>
    <i name="pawpsdc">     35.68842702</i>
    <i name="pawaedc">     -3.74646150</i>
    <i name="eentropy">     -0.00011136</i>
    <i name="bandstr">     10.77124793</i>
    <i name="atom">     53.53802810</i>
    <i name="e_fr_energy">     -3.74267524</i>
    <i name="e_wo_entrp">     -3.74256389</i>
    <i name="e_0_energy">     -3.74263812</i>
   </energy>
  </scstep>
  <structure>
   <crystal>
    <varray name="basis" >
     <v>       0.00000000       2.01944105       2.01944105 </v>
     <v>       2.01944105       0.00000000       2.01944105 </v>
     <v>       2.01944105       2.01944105       0.00000000 </v>
    </varray>
    <i name="volume">     16.47113530</i>
    <varray name="rec_basis" >
     <v>      -0.24759326       0.24759326       0.24759326 </v>
     <v>       0.24759326      -0.24759326       0.24759326 </v>
     <v>       0.24759326       0.24759326      -0.24759326 </v>
    </varray>
   </crystal>
   <varray name="positions" >
    <v>       0.00000000       0.00000000       0.00000000 </v>
   </varray>
  </structure>
  <varray name="forces" >
   <v>       0.00000000       0.00000000      -0.00000000 </v>
  </varray>
  <varray name="stress" >
   <v>       0.03889349       0.00000000       0.00000000 </v>
   <v>      -0.00000000       0.03889349       0.00000000 </v>
   <v>      -0.00000000      -0.00000000       0.03889349 </v>
  </varray>
  <energy>
   <i name="e_fr_energy">     -3.74267524</i>
   <i name="e_wo_entrp">     -3.74263812</i>
   <i name="e_0_energy">     -0.00011136</i>
  </energy>
  <eigenvalues>
   <array>
    <dimension dim="1">band</dimension>
    <dimension dim="2">kpoint</dimension>
    <dimension dim="3">spin</dimension>
    <field>eigene</field>
    <field>occ</field>
    <set>
     <set comment="spin 1">
      <set comment="kpoint 1">
       <r>  -3.1278  1.0000</r>
       <r>  20.6548  0.0000</r>
       <r>  20.6548  0.0000</r>
       <r>  20.6548  0.0000</r>
       <r>  22.1531  0.0000</r>
       <r>  22.1531  0.0000</r>
       <r>  22.1531  0.0000</r>
       <r>  24.4980  0.0000</r>
       <r>  27.4776  0.0000</r>
       <r>  27.4776  0.0000</r>
       <r>  30.3307  0.0000</r>
       <r>  32.6868  0.0000</r>
       <r>  32.6868  0.0000</r>
       <r>  32.6868  0.0000</r>
       <r>  41.3421  0.0000</r>
       <r>  56.9166  0.0000</r>
       <r>  58.3025  0.0000</r>
       <r>  58.3025  0.0000</r>
       <r>  58.3025  0.0000</r>
       <r>  59.5856  0.0000</r>
       <r>  59.5856  0.0000</r>
       <r>  59.5856  0.0000</r>
       <r>  63.2104  0.0000</r>
       <r>  63.2104  0.0000</r>
       <r>  65.4088  0.0000</r>
       <r>  65.4088  0.0000</r>
       <r>  65.4088  0.0000</r>
       <r>  73.9418  0.0000</r>
       <r>  73.9418  0.0000</r>
       <r>  73.9419  0.0000</r>
       <r>  81.2880  0.0000</r>
       <r>  83.6552  0.0000</r>
       <r>  83.6552  0.0000</r>
       <r>  87.7280  0.0000</r>
       <r>  87.7280  0.0000</r>
       <r>  87.7280  0.0000</r>
      </set>
      <set comment="kpoint 2">
       <r>  -3.0597  1.0000</r>
       <r>  19.3485  0.0000</r>
       <r>  20.3934  0.0000</r>
       <r>  20.3934  0.0000</r>
       <r>  22.5236  0.0000</r>
       <r>  22.5236  0.0000</r>
       <r>  22.6890  0.0000</r>
       <r>  25.2249  0.0000</r>
       <r>  27.0750  0.0000</r>
       <r>  27.0750  0.0000</r>
       <r>  30.0702  0.0000</r>
       <r>  33.0460  0.0000</r>
       <r>  33.2324  0.0000</r>
       <r>  33.2325  0.0000</r>
       <r>  41.6248  0.0000</r>
       <r>  56.9455  0.0000</r>
       <r>  58.2277  0.0000</r>
       <r>  58.2277  0.0000</r>
       <r>  58.5351  0.0000</r>
       <r>  59.2206  0.0000</r>
       <r>  59.2206  0.0000</r>
       <r>  60.3463  0.0000</r>
       <r>  62.3459  0.0000</r>
       <r>  62.3460  0.0000</r>
       <r>  65.4699  0.0000</r>
       <r>  67.2036  0.0000</r>
       <r>  67.2036  0.0000</r>
       <r>  73.3938  0.0000</r>
       <r>  73.9197  0.0000</r>
       <r>  73.9197  0.0000</r>
       <r>  82.0622  0.0000</r>
       <r>  83.3295  0.0000</r>
       <r>  83.3295  0.0000</r>
       <r>  86.1258  0.0000</r>
       <r>  87.1973  0.0000</r>
       <r>  87.1973  0.0000</r>
      </set>
      <set comment="kpoint 3">
       <r>  -2.8557  1.0000</r>
       <r>  17.3632  0.0000</r>
       <r>  19.9329  0.0000</r>
       <r>  19.9329  0.0000</r>
       <r>  22.8084  0.0000</r>
       <r>  23.2867  0.0000</r>
       <r>  23.2867  0.0000</r>
       <r>  26.1877  0.0000</r>
       <r>  26.1877  0.0000</r>
       <r>  26.9598  0.0000</r>
       <r>  29.4383  0.0000</r>
       <r>  34.0119  0.0000</r>
       <r>  34.5477  0.0000</r>
       <r>  34.5477  0.0000</r>
       <r>  42.4055  0.0000</r>
       <r>  56.3017  0.0000</r>
       <r>  56.3017  0.0000</r>
       <r>  56.5758  0.0000</r>
       <r>  58.1439  0.0000</r>
       <r>  59.0995  0.0000</r>
       <r>  59.0995  0.0000</r>
       <r>  61.7440  0.0000</r>
       <r>  61.9408  0.0000</r>
       <r>  61.9408  0.0000</r>
       <r>  65.6526  0.0000</r>
       <r>  69.9310  0.0000</r>
       <r>  69.9310  0.0000</r>
       <r>  71.9538  0.0000</r>
       <r>  73.6654  0.0000</r>
       <r>  73.6654  0.0000</r>
       <r>  82.1310  0.0000</r>
       <r>  82.1310  0.0000</r>
       <r>  82.6725  0.0000</r>
       <r>  84.8417  0.0000</r>
       <r>  86.0945  0.0000</r>
       <r>  86.0945  0.0000</r>
      </set>
      <set comment="kpoint 4">
       <r>  -2.5164  1.0000</r>
       <r>  15.3376  0.0000</r>
       <r>  19.5108  0.0000</r>
       <r>  19.5108  0.0000</r>
       <r>  22.6829  0.0000</r>
       <r>  24.0324  0.0000</r>
       <r>  24.0324  0.0000</r>
       <r>  25.3740  0.0000</r>
       <r>  25.3740  0.0000</r>
       <r>  28.6182  0.0000</r>
       <r>  28.9173  0.0000</r>
       <r>  35.4817  0.0000</r>
       <r>  36.2503  0.0000</r>
       <r>  36.2503  0.0000</r>
       <r>  43.5756  0.0000</r>
       <r>  53.7600  0.0000</r>
       <r>  53.7600  0.0000</r>
       <r>  55.7583  0.0000</r>
       <r>  58.1433  0.0000</r>
       <r>  59.8287  0.0000</r>
       <r>  59.8287  0.0000</r>
       <r>  62.0036  0.0000</r>
       <r>  62.0036  0.0000</r>
       <r>  62.6739  0.0000</r>
       <r>  65.9627  0.0000</r>
       <r>  70.3594  0.0000</r>
       <r>  72.0636  0.0000</r>
       <r>  72.0636  0.0000</r>
       <r>  73.6848  0.0000</r>
       <r>  73.6848  0.0000</r>
       <r>  80.3998  0.0000</r>
       <r>  80.3998  0.0000</r>
       <r>  80.6485  0.0000</r>
       <r>  84.5063  0.0000</r>
       <r>  84.5063  0.0000</r>
       <r>  86.6730  0.0000</r>
      </set>
      <set comment="kpoint 5">
       <r>  -2.0428  1.0000</r>
       <r>  13.3611  0.0000</r>
       <r>  19.1756  0.0000</r>
       <r>  19.1756  0.0000</r>
       <r>  22.5199  0.0000</r>
       <r>  23.6964  0.0000</r>
       <r>  23.6964  0.0000</r>
       <r>  25.7877  0.0000</r>
       <r>  25.7877  0.0000</r>
       <r>  27.7180  0.0000</r>
       <r>  30.8384  0.0000</r>
       <r>  37.3945  0.0000</r>
       <r>  38.1630  0.0000</r>
       <r>  38.1630  0.0000</r>
       <r>  45.0086  0.0000</r>
       <r>  51.1629  0.0000</r>
       <r>  51.1629  0.0000</r>
       <r>  54.5962  0.0000</r>
       <r>  58.0533  0.0000</r>
       <r>  59.8129  0.0000</r>
       <r>  59.8129  0.0000</r>
       <r>  62.2169  0.0000</r>
       <r>  62.2169  0.0000</r>
       <r>  62.6911  0.0000</r>
       <r>  66.3768  0.0000</r>
       <r>  68.9378  0.0000</r>
       <r>  71.3078  0.0000</r>
       <r>  71.3078  0.0000</r>
       <r>  75.1079  0.0000</r>
       <r>  75.1079  0.0000</r>
       <r>  78.6330  0.0000</r>
       <r>  79.2085  0.0000</r>
       <r>  79.2085  0.0000</r>
       <r>  82.5984  0.0000</r>
       <r>  82.5984  0.0000</r>
       <r>  84.4965  0.0000</r>
      </set>
      <set comment="kpoint 6">
       <r>  -1.4361  1.0000</r>
       <r>  11.4641  0.0000</r>
       <r>  18.9454  0.0000</r>
       <r>  18.9454  0.0000</r>
       <r>  22.3960  0.0000</r>
       <r>  22.8043  0.0000</r>
       <r>  22.8043  0.0000</r>
       <r>  26.8059  0.0000</r>
       <r>  26.9450  0.0000</r>
       <r>  26.9450  0.0000</r>
       <r>  32.6869  0.0000</r>
       <r>  39.6593  0.0000</r>
       <r>  40.1844  0.0000</r>
       <r>  40.1844  0.0000</r>
       <r>  46.6275  0.0000</r>
       <r>  48.6824  0.0000</r>
       <r>  48.6824  0.0000</r>
       <r>  53.1358  0.0000</r>
       <r>  58.1318  0.0000</r>
       <r>  60.0079  0.0000</r>
       <r>  60.0079  0.0000</r>
       <r>  61.8457  0.0000</r>
       <r>  62.5051  0.0000</r>
       <r>  62.5051  0.0000</r>
       <r>  66.9070  0.0000</r>
       <r>  67.7798  0.0000</r>
       <r>  69.3029  0.0000</r>
       <r>  69.3029  0.0000</r>
       <r>  75.3550  0.0000</r>
       <r>  75.3550  0.0000</r>
       <r>  76.9781  0.0000</r>
       <r>  79.6493  0.0000</r>
       <r>  79.6493  0.0000</r>
       <r>  80.3517  0.0000</r>
       <r>  80.8852  0.0000</r>
       <r>  80.8852  0.0000</r>
      </set>
      <set comment="kpoint 7">
       <r>  -0.6981  1.0000</r>
       <r>   9.6617 -0.0000</r>
       <r>  18.8245  0.0000</r>
       <r>  18.8245  0.0000</r>
       <r>  21.9362  0.0000</r>
       <r>  21.9362  0.0000</r>
       <r>  22.3493  0.0000</r>
       <r>  25.9286  0.0000</r>
       <r>  28.2768  0.0000</r>
       <r>  28.2768  0.0000</r>
       <r>  34.4720  0.0000</r>
       <r>  42.0594  0.0000</r>
       <r>  42.0594  0.0000</r>
       <r>  42.1577  0.0000</r>
       <r>  46.6287  0.0000</r>
       <r>  46.6287  0.0000</r>
       <r>  48.2480  0.0000</r>
       <r>  51.9161  0.0000</r>
       <r>  58.1802  0.0000</r>
       <r>  60.0141  0.0000</r>
       <r>  60.0141  0.0000</r>
       <r>  61.1380  0.0000</r>
       <r>  62.6791  0.0000</r>
       <r>  62.6791  0.0000</r>
       <r>  66.9485  0.0000</r>
       <r>  66.9485  0.0000</r>
       <r>  67.0022  0.0000</r>
       <r>  67.5093  0.0000</r>
       <r>  74.7350  0.0000</r>
       <r>  74.8803  0.0000</r>
       <r>  74.8803  0.0000</r>
       <r>  77.6118  0.0000</r>
       <r>  79.0116  0.0000</r>
       <r>  79.0116  0.0000</r>
       <r>  80.6120  0.0000</r>
       <r>  80.9386  0.0000</r>
      </set>
      <set comment="kpoint 8">
       <r>   0.1692  1.0000</r>
       <r>   7.9613  1.0351</r>
       <r>  18.8156  0.0000</r>
       <r>  18.8156  0.0000</r>
       <r>  21.1576  0.0000</r>
       <r>  21.1576  0.0000</r>
       <r>  22.3999  0.0000</r>
       <r>  25.1158  0.0000</r>
       <r>  29.6903  0.0000</r>
       <r>  29.6903  0.0000</r>
       <r>  36.1986  0.0000</r>
       <r>  42.4615  0.0000</r>
       <r>  42.4615  0.0000</r>
       <r>  44.7010  0.0000</r>
       <r>  46.3261  0.0000</r>
       <r>  46.3261  0.0000</r>
       <r>  48.8450  0.0000</r>
       <r>  51.8275  0.0000</r>
       <r>  58.1305  0.0000</r>
       <r>  59.3118  0.0000</r>
       <r>  59.8464  0.0000</r>
       <r>  59.8464  0.0000</r>
       <r>  62.2352  0.0000</r>
       <r>  62.2352  0.0000</r>
       <r>  65.0733  0.0000</r>
       <r>  65.0733  0.0000</r>
       <r>  66.0481  0.0000</r>
       <r>  68.1630  0.0000</r>
       <r>  71.0872  0.0000</r>
       <r>  74.4665  0.0000</r>
       <r>  74.4665  0.0000</r>
       <r>  77.0703  0.0000</r>
       <r>  77.6934  0.0000</r>
       <r>  77.6934  0.0000</r>
       <r>  78.9996  0.0000</r>
       <r>  81.4091  0.0000</r>
      </set>
      <set comment="kpoint 9">
       <r>   1.1635  1.0000</r>
       <r>   6.3705  1.0000</r>
       <r>  18.9201  0.0000</r>
       <r>  18.9201  0.0000</r>
       <r>  20.4842  0.0000</r>
       <r>  20.4842  0.0000</r>
       <r>  22.5614  0.0000</r>
       <r>  24.3908  0.0000</r>
       <r>  31.1062  0.0000</r>
       <r>  31.1062  0.0000</r>
       <r>  37.8175  0.0000</r>
       <r>  41.0147  0.0000</r>
       <r>  41.0147  0.0000</r>
       <r>  46.6670  0.0000</r>
       <r>  48.1883  0.0000</r>
       <r>  48.1883  0.0000</r>
       <r>  48.3372  0.0000</r>
       <r>  53.6560  0.0000</r>
       <r>  57.2523  0.0000</r>
       <r>  58.3627  0.0000</r>
       <r>  59.0094  0.0000</r>
       <r>  59.0094  0.0000</r>
       <r>  60.9382  0.0000</r>
       <r>  60.9382  0.0000</r>
       <r>  64.6119  0.0000</r>
       <r>  64.6119  0.0000</r>
       <r>  64.9494  0.0000</r>
       <r>  67.5042  0.0000</r>
       <r>  68.8035  0.0000</r>
       <r>  74.1880  0.0000</r>
       <r>  74.1880  0.0000</r>
       <r>  76.6416  0.0000</r>
       <r>  76.6416  0.0000</r>
       <r>  77.2011  0.0000</r>
       <r>  77.6745  0.0000</r>
       <r>  81.5815  0.0000</r>
      </set>
      <set comment="kpoint 10">
       <r>   2.2812  1.0000</r>
       <r>   4.8945  1.0000</r>
       <r>  19.1405  0.0000</r>
       <r>  19.1405  0.0000</r>
       <r>  19.9243  0.0000</r>
       <r>  19.9243  0.0000</r>
       <r>  22.8399  0.0000</r>
       <r>  23.7700  0.0000</r>
       <r>  32.3331  0.0000</r>
       <r>  32.3331  0.0000</r>
       <r>  39.1463  0.0000</r>
       <r>  39.5511  0.0000</r>
       <r>  39.5511  0.0000</r>
       <r>  46.1664  0.0000</r>
       <r>  49.8797  0.0000</r>
       <r>  50.4590  0.0000</r>
       <r>  50.4590  0.0000</r>
       <r>  55.7218  0.0000</r>
       <r>  56.0718  0.0000</r>
       <r>  57.0479  0.0000</r>
       <r>  57.0479  0.0000</r>
       <r>  58.5429  0.0000</r>
       <r>  60.9742  0.0000</r>
       <r>  60.9742  0.0000</r>
       <r>  63.0913  0.0000</r>
       <r>  64.6968  0.0000</r>
       <r>  64.6968  0.0000</r>
       <r>  65.4224  0.0000</r>
       <r>  69.3203  0.0000</r>
       <r>  74.0380  0.0000</r>
       <r>  74.0380  0.0000</r>
       <r>  75.9562  0.0000</r>
       <r>  75.9562  0.0000</r>
       <r>  76.7568  0.0000</r>
       <r>  77.4661  0.0000</r>
       <r>  81.7535  0.0000</r>
      </set>
      <set comment="kpoint 11">
       <r>   3.4192  1.0000</r>
       <r>   3.6371  1.0000</r>
       <r>  19.4476  0.0000</r>
       <r>  19.4476  0.0000</r>
       <r>  19.5028  0.0000</r>
       <r>  19.5028  0.0000</r>
       <r>  23.1597  0.0000</r>
       <r>  23.3349  0.0000</r>
       <r>  32.8845  0.0000</r>
       <r>  32.8845  0.0000</r>
       <r>  38.9055  0.0000</r>
       <r>  38.9055  0.0000</r>
       <r>  39.7214  0.0000</r>
       <r>  45.6746  0.0000</r>
       <r>  51.0043  0.0000</r>
       <r>  51.8593  0.0000</r>
       <r>  51.8593  0.0000</r>
       <r>  54.8620  0.0000</r>
       <r>  55.6211  0.0000</r>
       <r>  55.6211  0.0000</r>
       <r>  57.4931  0.0000</r>
       <r>  59.0369  0.0000</r>
       <r>  60.9126  0.0000</r>
       <r>  60.9126  0.0000</r>
       <r>  61.0355  0.0000</r>
       <r>  64.7509  0.0000</r>
       <r>  64.7509  0.0000</r>
       <r>  65.2220  0.0000</r>
       <r>  69.5217  0.0000</r>
       <r>  73.9910  0.0000</r>
       <r>  73.9910  0.0000</r>
       <r>  75.7150  0.0000</r>
       <r>  75.7150  0.0000</r>
       <r>  76.4183  0.0000</r>
       <r>  77.6283  0.0000</r>
       <r>  81.7642  0.0000</r>
      </set>
      <set comment="kpoint 12">
       <r>  -3.0370  1.0000</r>
       <r>  19.7694  0.0000</r>
       <r>  19.7694  0.0000</r>
       <r>  20.0154  0.0000</r>
       <r>  21.9329  0.0000</r>
       <r>  23.1776  0.0000</r>
       <r>  23.1776  0.0000</r>
       <r>  25.3217  0.0000</r>
       <r>  26.3381  0.0000</r>
       <r>  27.5636  0.0000</r>
       <r>  30.3136  0.0000</r>
       <r>  32.7899  0.0000</r>
       <r>  32.7899  0.0000</r>
       <r>  34.0279  0.0000</r>
       <r>  41.7304  0.0000</r>
       <r>  56.9445  0.0000</r>
       <r>  57.8269  0.0000</r>
       <r>  57.8269  0.0000</r>
       <r>  59.2126  0.0000</r>
       <r>  59.5117  0.0000</r>
       <r>  59.5117  0.0000</r>
       <r>  59.6566  0.0000</r>
       <r>  60.7572  0.0000</r>
       <r>  63.3248  0.0000</r>
       <r>  66.3881  0.0000</r>
       <r>  66.3881  0.0000</r>
       <r>  68.0050  0.0000</r>
       <r>  72.9175  0.0000</r>
       <r>  74.0443  0.0000</r>
       <r>  74.0443  0.0000</r>
       <r>  81.9257  0.0000</r>
       <r>  83.4502  0.0000</r>
       <r>  83.4729  0.0000</r>
       <r>  86.0892  0.0000</r>
       <r>  86.0892  0.0000</r>
       <r>  86.3032  0.0000</r>
      </set>
      <set comment="kpoint 13">
       <r>  -2.8784  1.0000</r>
       <r>  18.0421  0.0000</r>
       <r>  19.1870  0.0000</r>
       <r>  20.0646  0.0000</r>
       <r>  22.0613  0.0000</r>
       <r>  23.5755  0.0000</r>
       <r>  23.9939  0.0000</r>
       <r>  25.2376  0.0000</r>
       <r>  26.6490  0.0000</r>
       <r>  27.2597  0.0000</r>
       <r>  30.1201  0.0000</r>
       <r>  33.3932  0.0000</r>
       <r>  33.4346  0.0000</r>
       <r>  35.2376  0.0000</r>
       <r>  42.3871  0.0000</r>
       <r>  56.3115  0.0000</r>
       <r>  56.4674  0.0000</r>
       <r>  57.3002  0.0000</r>
       <r>  58.4219  0.0000</r>
       <r>  59.5812  0.0000</r>
       <r>  59.7040  0.0000</r>
       <r>  60.3113  0.0000</r>
       <r>  61.1590  0.0000</r>
       <r>  62.9905  0.0000</r>
       <r>  66.8809  0.0000</r>
       <r>  68.3531  0.0000</r>
       <r>  70.3272  0.0000</r>
       <r>  71.7962  0.0000</r>
       <r>  73.8423  0.0000</r>
       <r>  74.0968  0.0000</r>
       <r>  81.5973  0.0000</r>
       <r>  82.6816  0.0000</r>
       <r>  83.6744  0.0000</r>
       <r>  84.3288  0.0000</r>
       <r>  84.8157  0.0000</r>
       <r>  85.4590  0.0000</r>
      </set>
      <set comment="kpoint 14">
       <r>  -2.5842  1.0000</r>
       <r>  16.0408  0.0000</r>
       <r>  18.6952  0.0000</r>
       <r>  19.8451  0.0000</r>
       <r>  22.6825  0.0000</r>
       <r>  23.5413  0.0000</r>
       <r>  24.1530  0.0000</r>
       <r>  24.8284  0.0000</r>
       <r>  26.5617  0.0000</r>
       <r>  28.5372  0.0000</r>
       <r>  29.4444  0.0000</r>
       <r>  34.7572  0.0000</r>
       <r>  34.8357  0.0000</r>
       <r>  36.7532  0.0000</r>
       <r>  43.4705  0.0000</r>
       <r>  53.7674  0.0000</r>
       <r>  54.6991  0.0000</r>
       <r>  56.6312  0.0000</r>
       <r>  57.7588  0.0000</r>
       <r>  59.5095  0.0000</r>
       <r>  59.7214  0.0000</r>
       <r>  60.5619  0.0000</r>
       <r>  62.2893  0.0000</r>
       <r>  62.7177  0.0000</r>
       <r>  67.1950  0.0000</r>
       <r>  69.6208  0.0000</r>
       <r>  71.7778  0.0000</r>
       <r>  72.4750  0.0000</r>
       <r>  73.0169  0.0000</r>
       <r>  74.2846  0.0000</r>
       <r>  79.7840  0.0000</r>
       <r>  80.6566  0.0000</r>
       <r>  82.1291  0.0000</r>
       <r>  84.0467  0.0000</r>
       <r>  84.1385  0.0000</r>
       <r>  85.3651  0.0000</r>
      </set>
      <set comment="kpoint 15">
       <r>  -2.1554  1.0000</r>
       <r>  14.0547  0.0000</r>
       <r>  18.3080  0.0000</r>
       <r>  19.5542  0.0000</r>
       <r>  22.6431  0.0000</r>
       <r>  23.3786  0.0000</r>
       <r>  24.0980  0.0000</r>
       <r>  24.9371  0.0000</r>
       <r>  26.5682  0.0000</r>
       <r>  28.5803  0.0000</r>
       <r>  30.4881  0.0000</r>
       <r>  36.6063  0.0000</r>
       <r>  36.6104  0.0000</r>
       <r>  38.5020  0.0000</r>
       <r>  44.8589  0.0000</r>
       <r>  51.1165  0.0000</r>
       <r>  52.3956  0.0000</r>
       <r>  55.4537  0.0000</r>
       <r>  57.7541  0.0000</r>
       <r>  59.5452  0.0000</r>
       <r>  59.7547  0.0000</r>
       <r>  60.7554  0.0000</r>
       <r>  62.6616  0.0000</r>
       <r>  62.7920  0.0000</r>
       <r>  67.5363  0.0000</r>
       <r>  68.4947  0.0000</r>
       <r>  71.5999  0.0000</r>
       <r>  72.4718  0.0000</r>
       <r>  73.9152  0.0000</r>
       <r>  75.6114  0.0000</r>
       <r>  77.8006  0.0000</r>
       <r>  78.6979  0.0000</r>
       <r>  80.8977  0.0000</r>
       <r>  82.5039  0.0000</r>
       <r>  82.6891  0.0000</r>
       <r>  85.1674  0.0000</r>
      </set>
      <set comment="kpoint 16">
       <r>  -1.5931  1.0000</r>
       <r>  12.1352  0.0000</r>
       <r>  18.0313  0.0000</r>
       <r>  19.3189  0.0000</r>
       <r>  21.7204  0.0000</r>
       <r>  23.2241  0.0000</r>
       <r>  24.1495  0.0000</r>
       <r>  25.1630  0.0000</r>
       <r>  27.5955  0.0000</r>
       <r>  27.7055  0.0000</r>
       <r>  32.3649  0.0000</r>
       <r>  38.5735  0.0000</r>
       <r>  38.8265  0.0000</r>
       <r>  40.4034  0.0000</r>
       <r>  46.4596  0.0000</r>
       <r>  48.5699  0.0000</r>
       <r>  49.9943  0.0000</r>
       <r>  54.0986  0.0000</r>
       <r>  57.7297  0.0000</r>
       <r>  59.8475  0.0000</r>
       <r>  59.9667  0.0000</r>
       <r>  61.1041  0.0000</r>
       <r>  62.2854  0.0000</r>
       <r>  63.0357  0.0000</r>
       <r>  67.2859  0.0000</r>
       <r>  67.9062  0.0000</r>
       <r>  69.6301  0.0000</r>
       <r>  71.2848  0.0000</r>
       <r>  74.2925  0.0000</r>
       <r>  75.2448  0.0000</r>
       <r>  77.6583  0.0000</r>
       <r>  78.5301  0.0000</r>
       <r>  79.5558  0.0000</r>
       <r>  81.1404  0.0000</r>
       <r>  81.3520  0.0000</r>
       <r>  82.1159  0.0000</r>
      </set>
      <set comment="kpoint 17">
       <r>  -0.8990  1.0000</r>
       <r>  10.3034 -0.0000</r>
       <r>  17.8675  0.0000</r>
       <r>  19.1751  0.0000</r>
       <r>  20.7976  0.0000</r>
       <r>  23.1497  0.0000</r>
       <r>  23.2833  0.0000</r>
       <r>  26.1929  0.0000</r>
       <r>  27.0955  0.0000</r>
       <r>  28.8606  0.0000</r>
       <r>  34.1732  0.0000</r>
       <r>  40.5420  0.0000</r>
       <r>  41.3109  0.0000</r>
       <r>  42.2965  0.0000</r>
       <r>  46.3085  0.0000</r>
       <r>  47.7962  0.0000</r>
       <r>  48.1476  0.0000</r>
       <r>  52.6694  0.0000</r>
       <r>  57.7727  0.0000</r>
       <r>  59.8031  0.0000</r>
       <r>  59.8330  0.0000</r>
       <r>  61.2622  0.0000</r>
       <r>  61.2995  0.0000</r>
       <r>  63.2646  0.0000</r>
       <r>  65.9947  0.0000</r>
       <r>  67.6042  0.0000</r>
       <r>  67.8760  0.0000</r>
       <r>  69.6674  0.0000</r>
       <r>  73.4368  0.0000</r>
       <r>  74.0931  0.0000</r>
       <r>  76.4033  0.0000</r>
       <r>  78.0869  0.0000</r>
       <r>  78.9095  0.0000</r>
       <r>  79.1589  0.0000</r>
       <r>  80.8107  0.0000</r>
       <r>  81.1438  0.0000</r>
      </set>
      <set comment="kpoint 18">
       <r>  -0.0749  1.0000</r>
       <r>   8.5701 -0.0000</r>
       <r>  17.8179  0.0000</r>
       <r>  19.1384  0.0000</r>
       <r>  19.9677  0.0000</r>
       <r>  22.4871  0.0000</r>
       <r>  23.1660  0.0000</r>
       <r>  25.8097  0.0000</r>
       <r>  28.0768  0.0000</r>
       <r>  30.2108  0.0000</r>
       <r>  35.9248  0.0000</r>
       <r>  41.7159  0.0000</r>
       <r>  43.3499  0.0000</r>
       <r>  43.9081  0.0000</r>
       <r>  45.1727  0.0000</r>
       <r>  46.6882  0.0000</r>
       <r>  49.2719  0.0000</r>
       <r>  51.9700  0.0000</r>
       <r>  58.0605  0.0000</r>
       <r>  59.5994  0.0000</r>
       <r>  59.9288  0.0000</r>
       <r>  60.0624  0.0000</r>
       <r>  61.3439  0.0000</r>
       <r>  63.0829  0.0000</r>
       <r>  64.3924  0.0000</r>
       <r>  66.2090  0.0000</r>
       <r>  66.3413  0.0000</r>
       <r>  69.5127  0.0000</r>
       <r>  72.4647  0.0000</r>
       <r>  73.1121  0.0000</r>
       <r>  73.2338  0.0000</r>
       <r>  76.9949  0.0000</r>
       <r>  77.7777  0.0000</r>
       <r>  79.0350  0.0000</r>
       <r>  80.8475  0.0000</r>
       <r>  81.2341  0.0000</r>
      </set>
      <set comment="kpoint 19">
       <r>   0.8769  1.0000</r>
       <r>   6.9440  1.0000</r>
       <r>  17.8824  0.0000</r>
       <r>  19.1947  0.0000</r>
       <r>  19.2616  0.0000</r>
       <r>  21.7858  0.0000</r>
       <r>  23.2862  0.0000</r>
       <r>  25.1024  0.0000</r>
       <r>  29.5243  0.0000</r>
       <r>  31.5441  0.0000</r>
       <r>  37.5911  0.0000</r>
       <r>  40.7514  0.0000</r>
       <r>  42.1839  0.0000</r>
       <r>  46.2809  0.0000</r>
       <r>  46.5480  0.0000</r>
       <r>  48.1076  0.0000</r>
       <r>  48.7300  0.0000</r>
       <r>  53.3410  0.0000</r>
       <r>  57.5413  0.0000</r>
       <r>  58.2227  0.0000</r>
       <r>  59.1688  0.0000</r>
       <r>  59.7901  0.0000</r>
       <r>  60.8279  0.0000</r>
       <r>  61.4550  0.0000</r>
       <r>  64.3264  0.0000</r>
       <r>  64.5146  0.0000</r>
       <r>  65.2896  0.0000</r>
       <r>  68.8773  0.0000</r>
       <r>  69.9759  0.0000</r>
       <r>  72.5678  0.0000</r>
       <r>  72.6023  0.0000</r>
       <r>  76.0158  0.0000</r>
       <r>  76.9232  0.0000</r>
       <r>  79.0272  0.0000</r>
       <r>  80.7343  0.0000</r>
       <r>  80.7647  0.0000</r>
      </set>
      <set comment="kpoint 20">
       <r>   1.9535  1.0000</r>
       <r>   5.4300  1.0000</r>
       <r>  18.0619  0.0000</r>
       <r>  18.6300  0.0000</r>
       <r>  19.4068  0.0000</r>
       <r>  21.1909  0.0000</r>
       <r>  23.5177  0.0000</r>
       <r>  24.4625  0.0000</r>
       <r>  30.9832  0.0000</r>
       <r>  32.6202  0.0000</r>
       <r>  39.0446  0.0000</r>
       <r>  39.4291  0.0000</r>
       <r>  40.4815  0.0000</r>
       <r>  46.7745  0.0000</r>
       <r>  48.8319  0.0000</r>
       <r>  49.2493  0.0000</r>
       <r>  50.3629  0.0000</r>
       <r>  55.3315  0.0000</r>
       <r>  56.0463  0.0000</r>
       <r>  57.2885  0.0000</r>
       <r>  58.1669  0.0000</r>
       <r>  58.4604  0.0000</r>
       <r>  60.2397  0.0000</r>
       <r>  60.6693  0.0000</r>
       <r>  63.9155  0.0000</r>
       <r>  63.9745  0.0000</r>
       <r>  64.6149  0.0000</r>
       <r>  65.8868  0.0000</r>
       <r>  70.4455  0.0000</r>
       <r>  72.0931  0.0000</r>
       <r>  72.2949  0.0000</r>
       <r>  75.3137  0.0000</r>
       <r>  76.4719  0.0000</r>
       <r>  79.1301  0.0000</r>
       <r>  79.9919  0.0000</r>
       <r>  80.7047  0.0000</r>
      </set>
      <set comment="kpoint 21">
       <r>   3.1444  1.0000</r>
       <r>   4.0401  1.0000</r>
       <r>  18.1361  0.0000</r>
       <r>  18.3568  0.0000</r>
       <r>  19.7127  0.0000</r>
       <r>  20.7076  0.0000</r>
       <r>  23.8468  0.0000</r>
       <r>  23.9398  0.0000</r>
       <r>  32.2036  0.0000</r>
       <r>  32.9040  0.0000</r>
       <r>  38.9916  0.0000</r>
       <r>  39.0705  0.0000</r>
       <r>  39.9901  0.0000</r>
       <r>  46.0726  0.0000</r>
       <r>  50.7463  0.0000</r>
       <r>  51.0864  0.0000</r>
       <r>  51.6425  0.0000</r>
       <r>  54.9561  0.0000</r>
       <r>  55.4312  0.0000</r>
       <r>  56.3756  0.0000</r>
       <r>  57.3123  0.0000</r>
       <r>  58.9344  0.0000</r>
       <r>  60.1068  0.0000</r>
       <r>  60.1972  0.0000</r>
       <r>  62.0200  0.0000</r>
       <r>  63.7825  0.0000</r>
       <r>  64.8143  0.0000</r>
       <r>  64.9522  0.0000</r>
       <r>  70.7410  0.0000</r>
       <r>  71.8745  0.0000</r>
       <r>  72.0586  0.0000</r>
       <r>  74.9635  0.0000</r>
       <r>  76.3526  0.0000</r>
       <r>  79.2349  0.0000</r>
       <r>  79.5562  0.0000</r>
       <r>  80.7137  0.0000</r>
      </set>
      <set comment="kpoint 22">
       <r>   2.7373  1.0000</r>
       <r>   4.4869  1.0000</r>
       <r>  17.7588  0.0000</r>
       <r>  18.7674  0.0000</r>
       <r>  20.1359  0.0000</r>
       <r>  20.3379  0.0000</r>
       <r>  23.4889  0.0000</r>
       <r>  24.3284  0.0000</r>
       <r>  32.1095  0.0000</r>
       <r>  32.6509  0.0000</r>
       <r>  38.6524  0.0000</r>
       <r>  39.8173  0.0000</r>
       <r>  39.8176  0.0000</r>
       <r>  46.2187  0.0000</r>
       <r>  49.9405  0.0000</r>
       <r>  50.6541  0.0000</r>
       <r>  51.7325  0.0000</r>
       <r>  55.1514  0.0000</r>
       <r>  55.8492  0.0000</r>
       <r>  56.7025  0.0000</r>
       <r>  57.2029  0.0000</r>
       <r>  58.4853  0.0000</r>
       <r>  60.3747  0.0000</r>
       <r>  60.5670  0.0000</r>
       <r>  62.5754  0.0000</r>
       <r>  63.6389  0.0000</r>
       <r>  64.8762  0.0000</r>
       <r>  65.2127  0.0000</r>
       <r>  70.6828  0.0000</r>
       <r>  71.9434  0.0000</r>
       <r>  72.0531  0.0000</r>
       <r>  74.9882  0.0000</r>
       <r>  76.4662  0.0000</r>
       <r>  79.2612  0.0000</r>
       <r>  79.5573  0.0000</r>
       <r>  80.8279  0.0000</r>
      </set>
      <set comment="kpoint 23">
       <r>   1.5810  1.0000</r>
       <r>   5.9217  1.0000</r>
       <r>  17.4984  0.0000</r>
       <r>  19.2914  0.0000</r>
       <r>  20.0848  0.0000</r>
       <r>  20.6723  0.0000</r>
       <r>  23.1757  0.0000</r>
       <r>  24.8958  0.0000</r>
       <r>  30.7571  0.0000</r>
       <r>  32.0134  0.0000</r>
       <r>  38.6011  0.0000</r>
       <r>  39.5858  0.0000</r>
       <r>  41.3734  0.0000</r>
       <r>  46.8883  0.0000</r>
       <r>  47.8017  0.0000</r>
       <r>  48.8215  0.0000</r>
       <r>  49.9055  0.0000</r>
       <r>  54.7072  0.0000</r>
       <r>  56.7006  0.0000</r>
       <r>  57.8018  0.0000</r>
       <r>  58.2553  0.0000</r>
       <r>  59.2837  0.0000</r>
       <r>  60.8481  0.0000</r>
       <r>  60.9659  0.0000</r>
       <r>  63.3611  0.0000</r>
       <r>  64.4974  0.0000</r>
       <r>  65.0352  0.0000</r>
       <r>  66.8693  0.0000</r>
       <r>  70.2782  0.0000</r>
       <r>  71.9929  0.0000</r>
       <r>  72.6681  0.0000</r>
       <r>  75.3122  0.0000</r>
       <r>  76.7564  0.0000</r>
       <r>  79.2678  0.0000</r>
       <r>  80.0116  0.0000</r>
       <r>  81.0694  0.0000</r>
      </set>
      <set comment="kpoint 24">
       <r>   0.5456  1.0000</r>
       <r>   7.4735  1.0000</r>
       <r>  17.3550  0.0000</r>
       <r>  19.8567  0.0000</r>
       <r>  20.0151  0.0000</r>
       <r>  21.3177  0.0000</r>
       <r>  22.9765  0.0000</r>
       <r>  25.5593  0.0000</r>
       <r>  29.2667  0.0000</r>
       <r>  30.8043  0.0000</r>
       <r>  37.0921  0.0000</r>
       <r>  40.9607  0.0000</r>
       <r>  43.0742  0.0000</r>
       <r>  45.5241  0.0000</r>
       <r>  45.6563  0.0000</r>
       <r>  47.8312  0.0000</r>
       <r>  48.9322  0.0000</r>
       <r>  52.6188  0.0000</r>
       <r>  58.0518  0.0000</r>
       <r>  58.6531  0.0000</r>
       <r>  59.3922  0.0000</r>
       <r>  60.2004  0.0000</r>
       <r>  61.7575  0.0000</r>
       <r>  61.7637  0.0000</r>
       <r>  63.1011  0.0000</r>
       <r>  65.5538  0.0000</r>
       <r>  65.7988  0.0000</r>
       <r>  69.7199  0.0000</r>
       <r>  70.1671  0.0000</r>
       <r>  72.1918  0.0000</r>
       <r>  73.5531  0.0000</r>
       <r>  75.8674  0.0000</r>
       <r>  77.1834  0.0000</r>
       <r>  79.3869  0.0000</r>
       <r>  80.7195  0.0000</r>
       <r>  81.3687  0.0000</r>
      </set>
      <set comment="kpoint 25">
       <r>  -0.3639  1.0000</r>
       <r>   9.1356 -0.0000</r>
       <r>  17.3287  0.0000</r>
       <r>  19.8903  0.0000</r>
       <r>  20.7002  0.0000</r>
       <r>  22.0634  0.0000</r>
       <r>  22.8947  0.0000</r>
       <r>  26.2889  0.0000</r>
       <r>  27.7937  0.0000</r>
       <r>  29.4743  0.0000</r>
       <r>  35.3990  0.0000</r>
       <r>  41.3045  0.0000</r>
       <r>  43.0652  0.0000</r>
       <r>  43.5667  0.0000</r>
       <r>  45.0002  0.0000</r>
       <r>  47.1894  0.0000</r>
       <r>  48.9735  0.0000</r>
       <r>  51.9063  0.0000</r>
       <r>  57.9609  0.0000</r>
       <r>  59.6798  0.0000</r>
       <r>  60.0574  0.0000</r>
       <r>  60.3267  0.0000</r>
       <r>  62.2633  0.0000</r>
       <r>  62.3531  0.0000</r>
       <r>  64.6268  0.0000</r>
       <r>  66.3922  0.0000</r>
       <r>  67.6512  0.0000</r>
       <r>  69.1338  0.0000</r>
       <r>  72.5491  0.0000</r>
       <r>  73.9887  0.0000</r>
       <r>  74.5065  0.0000</r>
       <r>  76.7072  0.0000</r>
       <r>  77.8313  0.0000</r>
       <r>  79.5490  0.0000</r>
       <r>  80.6722  0.0000</r>
       <r>  81.7873  0.0000</r>
      </set>
      <set comment="kpoint 26">
       <r>  -1.1449  1.0000</r>
       <r>  10.9018  0.0000</r>
       <r>  17.4193  0.0000</r>
       <r>  19.9699  0.0000</r>
       <r>  21.5498  0.0000</r>
       <r>  22.7820  0.0000</r>
       <r>  23.0355  0.0000</r>
       <r>  26.4073  0.0000</r>
       <r>  26.9350  0.0000</r>
       <r>  28.3236  0.0000</r>
       <r>  33.6344  0.0000</r>
       <r>  39.5850  0.0000</r>
       <r>  40.6492  0.0000</r>
       <r>  41.9390  0.0000</r>
       <r>  46.6926  0.0000</r>
       <r>  47.4949  0.0000</r>
       <r>  48.9094  0.0000</r>
       <r>  53.0212  0.0000</r>
       <r>  57.8899  0.0000</r>
       <r>  59.5687  0.0000</r>
       <r>  60.1210  0.0000</r>
       <r>  61.6787  0.0000</r>
       <r>  61.8871  0.0000</r>
       <r>  62.3684  0.0000</r>
       <r>  67.1729  0.0000</r>
       <r>  67.1738  0.0000</r>
       <r>  68.6073  0.0000</r>
       <r>  69.9029  0.0000</r>
       <r>  73.5002  0.0000</r>
       <r>  75.2371  0.0000</r>
       <r>  77.2823  0.0000</r>
       <r>  77.9141  0.0000</r>
       <r>  79.2745  0.0000</r>
       <r>  79.5317  0.0000</r>
       <r>  79.8540  0.0000</r>
       <r>  82.5528  0.0000</r>
      </set>
      <set comment="kpoint 27">
       <r>  -1.7953  1.0000</r>
       <r>  12.7625  0.0000</r>
       <r>  17.6258  0.0000</r>
       <r>  20.1519  0.0000</r>
       <r>  22.4739  0.0000</r>
       <r>  22.9500  0.0000</r>
       <r>  23.8724  0.0000</r>
       <r>  25.1654  0.0000</r>
       <r>  26.5432  0.0000</r>
       <r>  28.3439  0.0000</r>
       <r>  31.8132  0.0000</r>
       <r>  37.3999  0.0000</r>
       <r>  38.5183  0.0000</r>
       <r>  39.9062  0.0000</r>
       <r>  45.8227  0.0000</r>
       <r>  49.0460  0.0000</r>
       <r>  51.2772  0.0000</r>
       <r>  54.3898  0.0000</r>
       <r>  57.7219  0.0000</r>
       <r>  59.2392  0.0000</r>
       <r>  59.9665  0.0000</r>
       <r>  61.5460  0.0000</r>
       <r>  62.0602  0.0000</r>
       <r>  62.4312  0.0000</r>
       <r>  67.9697  0.0000</r>
       <r>  68.0707  0.0000</r>
       <r>  69.7280  0.0000</r>
       <r>  71.7047  0.0000</r>
       <r>  74.9428  0.0000</r>
       <r>  75.1128  0.0000</r>
       <r>  78.1910  0.0000</r>
       <r>  78.9210  0.0000</r>
       <r>  79.3877  0.0000</r>
       <r>  79.9292  0.0000</r>
       <r>  82.7189  0.0000</r>
       <r>  83.8206  0.0000</r>
      </set>
      <set comment="kpoint 28">
       <r>  -2.3132  1.0000</r>
       <r>  14.7023  0.0000</r>
       <r>  17.9485  0.0000</r>
       <r>  20.4248  0.0000</r>
       <r>  23.0824  0.0000</r>
       <r>  23.1975  0.0000</r>
       <r>  24.3555  0.0000</r>
       <r>  24.6736  0.0000</r>
       <r>  25.6839  0.0000</r>
       <r>  29.0957  0.0000</r>
       <r>  29.9368  0.0000</r>
       <r>  35.3414  0.0000</r>
       <r>  36.6788  0.0000</r>
       <r>  37.9181  0.0000</r>
       <r>  44.3023  0.0000</r>
       <r>  51.6087  0.0000</r>
       <r>  53.7834  0.0000</r>
       <r>  55.6581  0.0000</r>
       <r>  57.7665  0.0000</r>
       <r>  59.2203  0.0000</r>
       <r>  60.1022  0.0000</r>
       <r>  61.3935  0.0000</r>
       <r>  61.8258  0.0000</r>
       <r>  62.7266  0.0000</r>
       <r>  67.6053  0.0000</r>
       <r>  69.2436  0.0000</r>
       <r>  71.4243  0.0000</r>
       <r>  72.8749  0.0000</r>
       <r>  73.1357  0.0000</r>
       <r>  75.2269  0.0000</r>
       <r>  78.8071  0.0000</r>
       <r>  79.8353  0.0000</r>
       <r>  80.7979  0.0000</r>
       <r>  81.8920  0.0000</r>
       <r>  83.8531  0.0000</r>
       <r>  85.8981  0.0000</r>
      </set>
      <set comment="kpoint 29">
       <r>  -2.6973  1.0000</r>
       <r>  16.6827  0.0000</r>
       <r>  18.3926  0.0000</r>
       <r>  20.7339  0.0000</r>
       <r>  22.7363  0.0000</r>
       <r>  23.1690  0.0000</r>
       <r>  24.2500  0.0000</r>
       <r>  24.9893  0.0000</r>
       <r>  26.1075  0.0000</r>
       <r>  27.9954  0.0000</r>
       <r>  29.8119  0.0000</r>
       <r>  33.6990  0.0000</r>
       <r>  35.1408  0.0000</r>
       <r>  36.0742  0.0000</r>
       <r>  43.0211  0.0000</r>
       <r>  54.1813  0.0000</r>
       <r>  56.2166  0.0000</r>
       <r>  56.6412  0.0000</r>
       <r>  57.7198  0.0000</r>
       <r>  58.8247  0.0000</r>
       <r>  60.2782  0.0000</r>
       <r>  61.3803  0.0000</r>
       <r>  61.5102  0.0000</r>
       <r>  62.2745  0.0000</r>
       <r>  67.3215  0.0000</r>
       <r>  69.9949  0.0000</r>
       <r>  70.4550  0.0000</r>
       <r>  72.7131  0.0000</r>
       <r>  72.9535  0.0000</r>
       <r>  73.9854  0.0000</r>
       <r>  81.1979  0.0000</r>
       <r>  81.2772  0.0000</r>
       <r>  82.4010  0.0000</r>
       <r>  83.8684  0.0000</r>
       <r>  84.2896  0.0000</r>
       <r>  86.2346  0.0000</r>
      </set>
      <set comment="kpoint 30">
       <r>  -2.9464  1.0000</r>
       <r>  18.4895  0.0000</r>
       <r>  19.0848  0.0000</r>
       <r>  20.8318  0.0000</r>
       <r>  22.2678  0.0000</r>
       <r>  23.0299  0.0000</r>
       <r>  23.4336  0.0000</r>
       <r>  26.0786  0.0000</r>
       <r>  26.2422  0.0000</r>
       <r>  26.8981  0.0000</r>
       <r>  30.0776  0.0000</r>
       <r>  32.8979  0.0000</r>
       <r>  33.9419  0.0000</r>
       <r>  34.4533  0.0000</r>
       <r>  42.0819  0.0000</r>
       <r>  56.4153  0.0000</r>
       <r>  57.1983  0.0000</r>
       <r>  57.7780  0.0000</r>
       <r>  58.1030  0.0000</r>
       <r>  58.3757  0.0000</r>
       <r>  60.3207  0.0000</r>
       <r>  60.4291  0.0000</r>
       <r>  61.6839  0.0000</r>
       <r>  61.8380  0.0000</r>
       <r>  67.1044  0.0000</r>
       <r>  67.1910  0.0000</r>
       <r>  69.5382  0.0000</r>
       <r>  72.5204  0.0000</r>
       <r>  73.5548  0.0000</r>
       <r>  74.0419  0.0000</r>
       <r>  82.4808  0.0000</r>
       <r>  82.5474  0.0000</r>
       <r>  83.4335  0.0000</r>
       <r>  84.3881  0.0000</r>
       <r>  86.1711  0.0000</r>
       <r>  86.4504  0.0000</r>
      </set>
      <set comment="kpoint 31">
       <r>  -2.7652  1.0000</r>
       <r>  18.5343  0.0000</r>
       <r>  18.5343  0.0000</r>
       <r>  18.8100  0.0000</r>
       <r>  21.3617  0.0000</r>
       <r>  23.9790  0.0000</r>
       <r>  24.8096  0.0000</r>
       <r>  24.8096  0.0000</r>
       <r>  27.0757  0.0000</r>
       <r>  27.8158  0.0000</r>
       <r>  30.9183  0.0000</r>
       <r>  33.1076  0.0000</r>
       <r>  33.1076  0.0000</r>
       <r>  36.1589  0.0000</r>
       <r>  42.9667  0.0000</r>
       <r>  55.9260  0.0000</r>
       <r>  55.9260  0.0000</r>
       <r>  56.7707  0.0000</r>
       <r>  57.6116  0.0000</r>
       <r>  59.8622  0.0000</r>
       <r>  59.8732  0.0000</r>
       <r>  59.8732  0.0000</r>
       <r>  60.0939  0.0000</r>
       <r>  63.8627  0.0000</r>
       <r>  68.3466  0.0000</r>
       <r>  68.3466  0.0000</r>
       <r>  70.6576  0.0000</r>
       <r>  71.5031  0.0000</r>
       <r>  74.1840  0.0000</r>
       <r>  74.1840  0.0000</r>
       <r>  80.8884  0.0000</r>
       <r>  82.5023  0.0000</r>
       <r>  82.5023  0.0000</r>
       <r>  83.0476  0.0000</r>
       <r>  83.2545  0.0000</r>
       <r>  85.4631  0.0000</r>
      </set>
      <set comment="kpoint 32">
       <r>  -2.5164  1.0000</r>
       <r>  16.7865  0.0000</r>
       <r>  17.9890  0.0000</r>
       <r>  19.0074  0.0000</r>
       <r>  21.3668  0.0000</r>
       <r>  22.7327  0.0000</r>
       <r>  25.2095  0.0000</r>
       <r>  25.6723  0.0000</r>
       <r>  27.6440  0.0000</r>
       <r>  28.5644  0.0000</r>
       <r>  30.7671  0.0000</r>
       <r>  33.8520  0.0000</r>
       <r>  34.0216  0.0000</r>
       <r>  37.3120  0.0000</r>
       <r>  44.0300  0.0000</r>
       <r>  53.8327  0.0000</r>
       <r>  54.4996  0.0000</r>
       <r>  56.7968  0.0000</r>
       <r>  57.1029  0.0000</r>
       <r>  58.5908  0.0000</r>
       <r>  60.0364  0.0000</r>
       <r>  60.2352  0.0000</r>
       <r>  61.3066  0.0000</r>
       <r>  63.7674  0.0000</r>
       <r>  68.7543  0.0000</r>
       <r>  69.0380  0.0000</r>
       <r>  70.6333  0.0000</r>
       <r>  73.2581  0.0000</r>
       <r>  73.8030  0.0000</r>
       <r>  74.4888  0.0000</r>
       <r>  79.2176  0.0000</r>
       <r>  80.2902  0.0000</r>
       <r>  81.2577  0.0000</r>
       <r>  82.1199  0.0000</r>
       <r>  83.1137  0.0000</r>
       <r>  86.0557  0.0000</r>
      </set>
      <set comment="kpoint 33">
       <r>  -2.1328  1.0000</r>
       <r>  14.8321  0.0000</r>
       <r>  17.5549  0.0000</r>
       <r>  18.9576  0.0000</r>
       <r>  21.3900  0.0000</r>
       <r>  22.1815  0.0000</r>
       <r>  25.1890  0.0000</r>
       <r>  26.1377  0.0000</r>
       <r>  27.4791  0.0000</r>
       <r>  29.9075  0.0000</r>
       <r>  30.5720  0.0000</r>
       <r>  35.3305  0.0000</r>
       <r>  35.7937  0.0000</r>
       <r>  38.7147  0.0000</r>
       <r>  45.4290  0.0000</r>
       <r>  51.1561  0.0000</r>
       <r>  52.5799  0.0000</r>
       <r>  56.6569  0.0000</r>
       <r>  57.2738  0.0000</r>
       <r>  57.4548  0.0000</r>
       <r>  60.0093  0.0000</r>
       <r>  60.2397  0.0000</r>
       <r>  62.1570  0.0000</r>
       <r>  63.6211  0.0000</r>
       <r>  67.3395  0.0000</r>
       <r>  69.3926  0.0000</r>
       <r>  71.8756  0.0000</r>
       <r>  73.1566  0.0000</r>
       <r>  73.2792  0.0000</r>
       <r>  76.2111  0.0000</r>
       <r>  76.9322  0.0000</r>
       <r>  77.9800  0.0000</r>
       <r>  80.6381  0.0000</r>
       <r>  81.8954  0.0000</r>
       <r>  82.7911  0.0000</r>
       <r>  83.8250  0.0000</r>
      </set>
      <set comment="kpoint 34">
       <r>  -1.6156  1.0000</r>
       <r>  12.9083  0.0000</r>
       <r>  17.2347  0.0000</r>
       <r>  18.7790  0.0000</r>
       <r>  20.3509  0.0000</r>
       <r>  23.1398  0.0000</r>
       <r>  25.1172  0.0000</r>
       <r>  25.5546  0.0000</r>
       <r>  28.3297  0.0000</r>
       <r>  29.0839  0.0000</r>
       <r>  32.4295  0.0000</r>
       <r>  37.1653  0.0000</r>
       <r>  37.9970  0.0000</r>
       <r>  40.3222  0.0000</r>
       <r>  47.0529  0.0000</r>
       <r>  48.5533  0.0000</r>
       <r>  50.4589  0.0000</r>
       <r>  55.6577  0.0000</r>
       <r>  57.2207  0.0000</r>
       <r>  57.5893  0.0000</r>
       <r>  60.0659  0.0000</r>
       <r>  60.2908  0.0000</r>
       <r>  62.2645  0.0000</r>
       <r>  63.7635  0.0000</r>
       <r>  66.1224  0.0000</r>
       <r>  69.5989  0.0000</r>
       <r>  70.4023  0.0000</r>
       <r>  72.4766  0.0000</r>
       <r>  72.9240  0.0000</r>
       <r>  75.3451  0.0000</r>
       <r>  76.9486  0.0000</r>
       <r>  77.6848  0.0000</r>
       <r>  79.8213  0.0000</r>
       <r>  81.4638  0.0000</r>
       <r>  81.9411  0.0000</r>
       <r>  82.2939  0.0000</r>
      </set>
      <set comment="kpoint 35">
       <r>  -0.9660  1.0000</r>
       <r>  11.0572  0.0000</r>
       <r>  17.0290  0.0000</r>
       <r>  18.6266  0.0000</r>
       <r>  19.3627  0.0000</r>
       <r>  24.2363  0.0000</r>
       <r>  24.7234  0.0000</r>
       <r>  25.1736  0.0000</r>
       <r>  28.2267  0.0000</r>
       <r>  29.5272  0.0000</r>
       <r>  34.2755  0.0000</r>
       <r>  39.1358  0.0000</r>
       <r>  40.4975  0.0000</r>
       <r>  42.0326  0.0000</r>
       <r>  46.1664  0.0000</r>
       <r>  48.3247  0.0000</r>
       <r>  48.8013  0.0000</r>
       <r>  54.2428  0.0000</r>
       <r>  57.1066  0.0000</r>
       <r>  57.9780  0.0000</r>
       <r>  60.0537  0.0000</r>
       <r>  60.5040  0.0000</r>
       <r>  61.4039  0.0000</r>
       <r>  63.8548  0.0000</r>
       <r>  65.1615  0.0000</r>
       <r>  68.3533  0.0000</r>
       <r>  69.2852  0.0000</r>
       <r>  71.5266  0.0000</r>
       <r>  71.6828  0.0000</r>
       <r>  73.1884  0.0000</r>
       <r>  77.6765  0.0000</r>
       <r>  77.7654  0.0000</r>
       <r>  78.0875  0.0000</r>
       <r>  79.8405  0.0000</r>
[...]
       <set comment="band 32">
        <r>  0.0011  0.7225  0.0000 </r>
       </set>
       <set comment="band 33">
        <r>  0.3614  0.2056  0.0000 </r>
       </set>
       <set comment="band 34">
        <r>  0.5506  0.0613  0.0000 </r>
       </set>
       <set comment="band 35">
        <r>  0.0613  0.0634  0.0000 </r>
       </set>
       <set comment="band 36">
        <r>  0.0245  0.1371  0.0000 </r>
       </set>
      </set>
      <set comment="kpoint 251">
       <set comment="band 1">
        <r>  0.0000  0.2020  0.0000 </r>
       </set>
       <set comment="band 2">
        <r>  0.1531  0.1298  0.0000 </r>
       </set>
       <set comment="band 3">
        <r>  0.0000  0.1571  0.0000 </r>
       </set>
       <set comment="band 4">
        <r>  0.3150  0.0979  0.0000 </r>
       </set>
       <set comment="band 5">
        <r>  0.0000  0.2521  0.0000 </r>
       </set>
       <set comment="band 6">
        <r>  0.0414  0.0571  0.0000 </r>
       </set>
       <set comment="band 7">
        <r>  0.0000  0.2369  0.0000 </r>
       </set>
       <set comment="band 8">
        <r>  0.0727  0.0621  0.0000 </r>
       </set>
       <set comment="band 9">
        <r>  0.0047  0.0455  0.0000 </r>
       </set>
       <set comment="band 10">
        <r>  0.0000  0.0184  0.0000 </r>
       </set>
       <set comment="band 11">
        <r>  0.0929  0.0618  0.0000 </r>
       </set>
       <set comment="band 12">
        <r>  0.0000  0.1085  0.0000 </r>
       </set>
       <set comment="band 13">
        <r>  0.0000  0.1043  0.0000 </r>
       </set>
       <set comment="band 14">
        <r>  0.0209  0.0066  0.0000 </r>
       </set>
       <set comment="band 15">
        <r>  0.0893  0.1323  0.0000 </r>
       </set>
       <set comment="band 16">
        <r>  0.0000  0.0410  0.0000 </r>
       </set>
       <set comment="band 17">
        <r>  0.0000  0.3013  0.0000 </r>
       </set>
       <set comment="band 18">
        <r>  0.5268  0.3566  0.0000 </r>
       </set>
       <set comment="band 19">
        <r>  8.4141  0.0078  0.0000 </r>
       </set>
       <set comment="band 20">
        <r>  0.0000  1.7569  0.0000 </r>
       </set>
       <set comment="band 21">
        <r>  0.3503  0.3417  0.0000 </r>
       </set>
       <set comment="band 22">
        <r>  0.0000  0.7993  0.0000 </r>
       </set>
       <set comment="band 23">
        <r>  0.0000  0.7605  0.0000 </r>
       </set>
       <set comment="band 24">
        <r>  0.6908  0.0017  0.0000 </r>
       </set>
       <set comment="band 25">
        <r>  0.0177  3.0704  0.0000 </r>
       </set>
       <set comment="band 26">
        <r>  0.0000  1.9644  0.0000 </r>
       </set>
       <set comment="band 27">
        <r>  0.0073  0.4267  0.0000 </r>
       </set>
       <set comment="band 28">
        <r>  0.0000  0.7185  0.0000 </r>
       </set>
       <set comment="band 29">
        <r>  0.0000  1.0402  0.0000 </r>
       </set>
       <set comment="band 30">
        <r>  0.3498  0.3210  0.0000 </r>
       </set>
       <set comment="band 31">
        <r>  0.0000  2.3517  0.0000 </r>
       </set>
       <set comment="band 32">
        <r>  0.0000  0.3792  0.0000 </r>
       </set>
       <set comment="band 33">
        <r>  0.2146  0.4371  0.0000 </r>
       </set>
       <set comment="band 34">
        <r>  0.7774  0.0100  0.0000 </r>
       </set>
       <set comment="band 35">
        <r>  0.0000  0.1066  0.0000 </r>
       </set>
       <set comment="band 36">
        <r>  0.0697  0.0991  0.0000 </r>
       </set>
      </set>
      <set comment="kpoint 252">
       <set comment="band 1">
        <r>  0.0828  0.1629  0.0000 </r>
       </set>
       <set comment="band 2">
        <r>  0.0000  0.2127  0.0000 </r>
       </set>
       <set comment="band 3">
        <r>  0.0213  0.1462  0.0000 </r>
       </set>
       <set comment="band 4">
        <r>  0.3609  0.0668  0.0000 </r>
       </set>
       <set comment="band 5">
        <r>  0.0000  0.1219  0.0000 </r>
       </set>
       <set comment="band 6">
        <r>  0.0594  0.2844  0.0000 </r>
       </set>
       <set comment="band 7">
        <r>  0.0362  0.0712  0.0000 </r>
       </set>
       <set comment="band 8">
        <r>  0.0301  0.1124  0.0000 </r>
       </set>
       <set comment="band 9">
        <r>  0.0000  0.0280  0.0000 </r>
       </set>
       <set comment="band 10">
        <r>  0.0003  0.0089  0.0000 </r>
       </set>
       <set comment="band 11">
        <r>  0.0737  0.1104  0.0000 </r>
       </set>
       <set comment="band 12">
        <r>  0.0000  0.0346  0.0000 </r>
       </set>
       <set comment="band 13">
        <r>  0.0000  0.2072  0.0000 </r>
       </set>
       <set comment="band 14">
        <r>  0.0138  0.0543  0.0000 </r>
       </set>
       <set comment="band 15">
        <r>  0.1136  0.0394  0.0000 </r>
       </set>
       <set comment="band 16">
        <r>  0.0000  0.0173  0.0000 </r>
       </set>
       <set comment="band 17">
        <r>  0.1417  0.4159  0.0000 </r>
       </set>
       <set comment="band 18">
        <r>  0.0000  0.0435  0.0000 </r>
       </set>
       <set comment="band 19">
        <r>  1.3556  0.0274  0.0000 </r>
       </set>
       <set comment="band 20">
        <r>  4.2069  0.6410  0.0000 </r>
       </set>
       <set comment="band 21">
        <r>  0.0000  0.7822  0.0000 </r>
       </set>
       <set comment="band 22">
        <r>  4.0668  1.1492  0.0000 </r>
       </set>
       <set comment="band 23">
        <r>  0.0418  1.1527  0.0000 </r>
       </set>
       <set comment="band 24">
        <r>  0.0000  1.3757  0.0000 </r>
       </set>
       <set comment="band 25">
        <r>  0.0537  1.4968  0.0000 </r>
       </set>
       <set comment="band 26">
        <r>  0.0302  1.4730  0.0000 </r>
       </set>
       <set comment="band 27">
        <r>  0.0000  0.1430  0.0000 </r>
       </set>
       <set comment="band 28">
        <r>  0.0000  2.0852  0.0000 </r>
       </set>
       <set comment="band 29">
        <r>  0.3615  1.0131  0.0000 </r>
       </set>
       <set comment="band 30">
        <r>  0.1033  2.0418  0.0000 </r>
       </set>
       <set comment="band 31">
        <r>  0.0000  0.3086  0.0000 </r>
       </set>
       <set comment="band 32">
        <r>  0.1344  0.5821  0.0000 </r>
       </set>
       <set comment="band 33">
        <r>  0.4819  0.1585  0.0000 </r>
       </set>
       <set comment="band 34">
        <r>  0.3716  0.0164  0.0000 </r>
       </set>
       <set comment="band 35">
        <r>  0.0000  0.0282  0.0000 </r>
       </set>
       <set comment="band 36">
        <r>  0.0978  0.2134  0.0000 </r>
       </set>
      </set>
      <set comment="kpoint 253">
       <set comment="band 1">
        <r>  0.0355  0.1957  0.0000 </r>
       </set>
       <set comment="band 2">
        <r>  0.0334  0.1925  0.0000 </r>
       </set>
       <set comment="band 3">
        <r>  0.0756  0.1258  0.0000 </r>
       </set>
       <set comment="band 4">
        <r>  0.3270  0.0708  0.0000 </r>
       </set>
       <set comment="band 5">
        <r>  0.0119  0.1428  0.0000 </r>
       </set>
       <set comment="band 6">
        <r>  0.0092  0.3017  0.0000 </r>
       </set>
       <set comment="band 7">
        <r>  0.0270  0.0811  0.0000 </r>
       </set>
       <set comment="band 8">
        <r>  0.0735  0.0754  0.0000 </r>
       </set>
       <set comment="band 9">
        <r>  0.0004  0.0154  0.0000 </r>
       </set>
       <set comment="band 10">
        <r>  0.0017  0.0148  0.0000 </r>
       </set>
       <set comment="band 11">
        <r>  0.0566  0.1227  0.0000 </r>
       </set>
       <set comment="band 12">
        <r>  0.0005  0.1042  0.0000 </r>
       </set>
       <set comment="band 13">
        <r>  0.0029  0.1055  0.0000 </r>
       </set>
       <set comment="band 14">
        <r>  0.0085  0.0358  0.0000 </r>
       </set>
       <set comment="band 15">
        <r>  0.1304  0.0837  0.0000 </r>
       </set>
       <set comment="band 16">
        <r>  0.0010  0.0099  0.0000 </r>
       </set>
       <set comment="band 17">
        <r>  0.0411  0.3979  0.0000 </r>
       </set>
       <set comment="band 18">
        <r>  0.0457  0.3142  0.0000 </r>
       </set>
       <set comment="band 19">
        <r>  6.0820  0.5534  0.0000 </r>
       </set>
       <set comment="band 20">
        <r>  2.5479  0.9295  0.0000 </r>
       </set>
       <set comment="band 21">
        <r>  0.4365  0.5236  0.0000 </r>
       </set>
       <set comment="band 22">
        <r>  0.6528  0.4817  0.0000 </r>
       </set>
       <set comment="band 23">
        <r>  0.0103  0.8162  0.0000 </r>
       </set>
       <set comment="band 24">
        <r>  0.0016  1.0657  0.0000 </r>
       </set>
       <set comment="band 25">
        <r>  0.1370  0.4040  0.0000 </r>
       </set>
       <set comment="band 26">
        <r>  0.0101  1.1206  0.0000 </r>
       </set>
       <set comment="band 27">
        <r>  0.0026  0.8521  0.0000 </r>
       </set>
       <set comment="band 28">
        <r>  0.0209  1.7509  0.0000 </r>
       </set>
       <set comment="band 29">
        <r>  0.0063  1.7755  0.0000 </r>
       </set>
       <set comment="band 30">
        <r>  0.1736  1.5318  0.0000 </r>
       </set>
       <set comment="band 31">
        <r>  0.0008  1.9775  0.0000 </r>
       </set>
       <set comment="band 32">
        <r>  0.6276  0.1740  0.0000 </r>
       </set>
       <set comment="band 33">
        <r>  0.0823  0.1824  0.0000 </r>
       </set>
       <set comment="band 34">
        <r>  0.3793  0.0753  0.0000 </r>
       </set>
       <set comment="band 35">
        <r>  0.0000  0.1384  0.0000 </r>
       </set>
       <set comment="band 36">
        <r>  0.2170  0.0788  0.0000 </r>
       </set>
      </set>
      <set comment="kpoint 254">
       <set comment="band 1">
        <r>  0.0655  0.1702  0.0000 </r>
       </set>
       <set comment="band 2">
        <r>  0.0000  0.2225  0.0000 </r>
       </set>
       <set comment="band 3">
        <r>  0.1346  0.0953  0.0000 </r>
       </set>
       <set comment="band 4">
        <r>  0.2713  0.0965  0.0000 </r>
       </set>
       <set comment="band 5">
        <r>  0.0153  0.1864  0.0000 </r>
       </set>
       <set comment="band 6">
        <r>  0.0000  0.1062  0.0000 </r>
       </set>
       <set comment="band 7">
        <r>  0.0184  0.2651  0.0000 </r>
       </set>
       <set comment="band 8">
        <r>  0.0844  0.0480  0.0000 </r>
       </set>
       <set comment="band 9">
        <r>  0.0000  0.0282  0.0000 </r>
       </set>
       <set comment="band 10">
        <r>  0.0048  0.0269  0.0000 </r>
       </set>
       <set comment="band 11">
        <r>  0.0000  0.0058  0.0000 </r>
       </set>
       <set comment="band 12">
        <r>  0.0795  0.1082  0.0000 </r>
       </set>
       <set comment="band 13">
        <r>  0.0000  0.2009  0.0000 </r>
       </set>
       <set comment="band 14">
        <r>  0.0038  0.0258  0.0000 </r>
       </set>
       <set comment="band 15">
        <r>  0.1210  0.0819  0.0000 </r>
       </set>
       <set comment="band 16">
        <r>  0.0000  0.0143  0.0000 </r>
       </set>
       <set comment="band 17">
        <r>  0.1613  0.4324  0.0000 </r>
       </set>
       <set comment="band 18">
        <r>  0.0000  0.3098  0.0000 </r>
       </set>
       <set comment="band 19">
        <r>  7.3336  0.3609  0.0000 </r>
       </set>
       <set comment="band 20">
        <r>  1.9196  1.3722  0.0000 </r>
       </set>
       <set comment="band 21">
        <r>  0.0000  0.5291  0.0000 </r>
       </set>
       <set comment="band 22">
        <r>  0.4062  0.2794  0.0000 </r>
       </set>
       <set comment="band 23">
        <r>  0.0007  0.8640  0.0000 </r>
       </set>
       <set comment="band 24">
        <r>  0.0000  0.0618  0.0000 </r>
       </set>
       <set comment="band 25">
        <r>  0.1196  1.6359  0.0000 </r>
       </set>
       <set comment="band 26">
        <r>  0.0000  2.2966  0.0000 </r>
       </set>
       <set comment="band 27">
        <r>  0.0344  1.1963  0.0000 </r>
       </set>
       <set comment="band 28">
        <r>  0.0000  0.0230  0.0000 </r>
       </set>
       <set comment="band 29">
        <r>  0.1908  1.0831  0.0000 </r>
       </set>
       <set comment="band 30">
        <r>  0.0000  1.6045  0.0000 </r>
       </set>
       <set comment="band 31">
        <r>  0.0338  2.4561  0.0000 </r>
       </set>
       <set comment="band 32">
        <r>  0.1677  0.4122  0.0000 </r>
       </set>
       <set comment="band 33">
        <r>  0.5308  0.0424  0.0000 </r>
       </set>
       <set comment="band 34">
        <r>  0.4465  0.0380  0.0000 </r>
       </set>
       <set comment="band 35">
        <r>  0.0000  0.1584  0.0000 </r>
       </set>
       <set comment="band 36">
        <r>  0.1134  0.0753  0.0000 </r>
       </set>
      </set>
      <set comment="kpoint 255">
       <set comment="band 1">
        <r>  0.0000  0.2316  0.0000 </r>
       </set>
       <set comment="band 2">
        <r>  0.1428  0.0763  0.0000 </r>
       </set>
       <set comment="band 3">
        <r>  0.0000  0.2135  0.0000 </r>
       </set>
       <set comment="band 4">
        <r>  0.3252  0.0667  0.0000 </r>
       </set>
       <set comment="band 5">
        <r>  0.0000  0.1228  0.0000 </r>
       </set>
       <set comment="band 6">
        <r>  0.0669  0.2687  0.0000 </r>
       </set>
       <set comment="band 7">
        <r>  0.0000  0.0908  0.0000 </r>
       </set>
       <set comment="band 8">
        <r>  0.0617  0.1043  0.0000 </r>
       </set>
       <set comment="band 9">
        <r>  0.0000  0.0000  0.0000 </r>
       </set>
       <set comment="band 10">
        <r>  0.0069  0.0001  0.0000 </r>
       </set>
       <set comment="band 11">
        <r>  0.0000  0.2129  0.0000 </r>
       </set>
       <set comment="band 12">
        <r>  0.0000  0.1553  0.0000 </r>
       </set>
       <set comment="band 13">
        <r>  0.0000  0.0355  0.0000 </r>
       </set>
       <set comment="band 14">
        <r>  0.0000  0.0691  0.0000 </r>
       </set>
       <set comment="band 15">
        <r>  0.1818  0.0207  0.0000 </r>
       </set>
       <set comment="band 16">
        <r>  0.0000  0.0000  0.0000 </r>
       </set>
       <set comment="band 17">
        <r>  0.0000  0.4060  0.0000 </r>
       </set>
       <set comment="band 18">
        <r>  0.0000  0.2319  0.0000 </r>
       </set>
       <set comment="band 19">
        <r>  5.4289  0.5557  0.0000 </r>
       </set>
       <set comment="band 20">
        <r>  0.6615  0.4582  0.0000 </r>
       </set>
       <set comment="band 21">
        <r>  3.7243  0.9219  0.0000 </r>
       </set>
       <set comment="band 22">
        <r>  0.0000  0.0000  0.0000 </r>
       </set>
       <set comment="band 23">
        <r>  0.0000  1.5919  0.0000 </r>
       </set>
       <set comment="band 24">
        <r>  0.0000  0.3308  0.0000 </r>
       </set>
       <set comment="band 25">
        <r>  0.0000  2.2925  0.0000 </r>
       </set>
       <set comment="band 26">
        <r>  0.2094  0.9241  0.0000 </r>
       </set>
       <set comment="band 27">
        <r>  0.0000  0.0000  0.0000 </r>
       </set>
       <set comment="band 28">
        <r>  0.0000  2.6323  0.0000 </r>
       </set>
       <set comment="band 29">
        <r>  0.0000  1.8589  0.0000 </r>
       </set>
       <set comment="band 30">
        <r>  0.1799  2.0601  0.0000 </r>
       </set>
       <set comment="band 31">
        <r>  0.0000  0.2963  0.0000 </r>
       </set>
       <set comment="band 32">
        <r>  0.7055  0.0091  0.0000 </r>
       </set>
       <set comment="band 33">
        <r>  0.1351  0.1486  0.0000 </r>
       </set>
       <set comment="band 34">
        <r>  0.0000  0.0311  0.0000 </r>
       </set>
       <set comment="band 35">
        <r>  0.0000  0.3201  0.0000 </r>
       </set>
       <set comment="band 36">
        <r>  0.4348  0.0930  0.0000 </r>
       </set>
      </set>
      <set comment="kpoint 256">
       <set comment="band 1">
        <r>  0.0000  0.2233  0.0000 </r>
       </set>
       <set comment="band 2">
        <r>  0.0000  0.2233  0.0000 </r>
       </set>
       <set comment="band 3">
        <r>  0.0000  0.1361  0.0000 </r>
       </set>
       <set comment="band 4">
        <r>  0.4748  0.0000  0.0000 </r>
       </set>
       <set comment="band 5">
        <r>  0.0000  0.1077  0.0000 </r>
       </set>
       <set comment="band 6">
        <r>  0.0000  0.1077  0.0000 </r>
       </set>
       <set comment="band 7">
        <r>  0.0000  0.3892  0.0000 </r>
       </set>
       <set comment="band 8">
        <r>  0.1220  0.0000  0.0000 </r>
       </set>
       <set comment="band 9">
        <r>  0.0000  0.0000  0.0000 </r>
       </set>
       <set comment="band 10">
        <r>  0.0000  0.0008  0.0000 </r>
       </set>
       <set comment="band 11">
        <r>  0.0000  0.1879  0.0000 </r>
       </set>
       <set comment="band 12">
        <r>  0.0000  0.1879  0.0000 </r>
       </set>
       <set comment="band 13">
        <r>  0.0000  0.0556  0.0000 </r>
       </set>
       <set comment="band 14">
        <r>  0.0000  0.0556  0.0000 </r>
       </set>
       <set comment="band 15">
        <r>  0.2035  0.0000  0.0000 </r>
       </set>
       <set comment="band 16">
        <r>  0.0000  0.0000  0.0000 </r>
       </set>
       <set comment="band 17">
        <r>  0.0000  0.3888  0.0000 </r>
       </set>
       <set comment="band 18">
        <r>  0.0000  0.3888  0.0000 </r>
       </set>
       <set comment="band 19">
        <r>  0.0000  1.5568  0.0000 </r>
       </set>
       <set comment="band 20">
        <r>  9.4405  0.0000  0.0000 </r>
       </set>
       <set comment="band 21">
        <r>  0.5741  0.0000  0.0000 </r>
       </set>
       <set comment="band 22">
        <r>  0.0000  0.6916  0.0000 </r>
       </set>
       <set comment="band 23">
        <r>  0.0000  0.0000  0.0000 </r>
       </set>
       <set comment="band 24">
        <r>  0.0000  1.5710  0.0000 </r>
       </set>
       <set comment="band 25">
        <r>  0.0000  1.5710  0.0000 </r>
       </set>
       <set comment="band 26">
        <r>  0.0000  0.0000  0.0000 </r>
       </set>
       <set comment="band 27">
        <r>  0.0000  0.5994  0.0000 </r>
       </set>
       <set comment="band 28">
        <r>  0.0000  0.5994  0.0000 </r>
       </set>
       <set comment="band 29">
        <r>  0.0000  2.2535  0.0000 </r>
       </set>
       <set comment="band 30">
        <r>  0.0000  2.2535  0.0000 </r>
       </set>
       <set comment="band 31">
        <r>  0.0000  2.7669  0.0000 </r>
       </set>
       <set comment="band 32">
        <r>  0.9898  0.0000  0.0000 </r>
       </set>
       <set comment="band 33">
        <r>  0.0000  0.1040  0.0000 </r>
       </set>
       <set comment="band 34">
        <r>  0.0000  0.1693  0.0000 </r>
       </set>
       <set comment="band 35">
        <r>  0.0000  0.1693  0.0000 </r>
       </set>
       <set comment="band 36">
        <r>  0.4940  0.0000  0.0000 </r>
       </set>
      </set>
     </set>
    </set>
   </array>
  </projected>
 </calculation>
 <structure name="finalpos" >
  <crystal>
   <varray name="basis" >
    <v>       0.00000000       2.01944105       2.01944105 </v>
    <v>       2.01944105       0.00000000       2.01944105 </v>
    <v>       2.01944105       2.01944105       0.00000000 </v>
   </varray>
   <i name="volume">     16.47113530</i>
   <varray name="rec_basis" >
    <v>      -0.24759326       0.24759326       0.24759326 </v>
    <v>       0.24759326      -0.24759326       0.24759326 </v>
    <v>       0.24759326       0.24759326      -0.24759326 </v>
   </varray>
  </crystal>
  <varray name="positions" >
   <v>       0.00000000       0.00000000       0.00000000 </v>
  </varray>
 </structure>
</modeling>
